# vtk DataFile Version 1.0
ECM-CELL DIFFUSION-MECHANICS
ASCII

DATASET UNSTRUCTURED_GRID
POINTS    20529 float
1.50000000E+01 3.00000000E+01 0.00000000E+00
1.48000000E+01 3.00000000E+01 0.00000000E+00
1.48570000E+01 2.98570000E+01 0.00000000E+00
1.46570000E+01 2.98570000E+01 0.00000000E+00
1.46000000E+01 3.00000000E+01 0.00000000E+00
1.47140000E+01 2.97140000E+01 0.00000000E+00
1.45140000E+01 2.97140000E+01 0.00000000E+00
1.44000000E+01 3.00000000E+01 0.00000000E+00
1.45710000E+01 2.95710000E+01 0.00000000E+00
1.43140000E+01 2.97140000E+01 0.00000000E+00
1.42000000E+01 3.00000000E+01 0.00000000E+00
1.44290000E+01 2.94290000E+01 0.00000000E+00
1.42140000E+01 2.95410000E+01 0.00000000E+00
1.41000000E+01 2.98270000E+01 0.00000000E+00
1.40000000E+01 3.00000000E+01 0.00000000E+00
1.42860000E+01 2.92860000E+01 0.00000000E+00
1.40000000E+01 2.96540000E+01 0.00000000E+00
1.40710000E+01 2.93980000E+01 0.00000000E+00
1.39000000E+01 2.98270000E+01 0.00000000E+00
1.38000000E+01 3.00000000E+01 0.00000000E+00
1.41430000E+01 2.91430000E+01 0.00000000E+00
1.39000000E+01 2.94880000E+01 0.00000000E+00
1.38000000E+01 2.96540000E+01 0.00000000E+00
1.39710000E+01 2.92330000E+01 0.00000000E+00
1.37000000E+01 2.98270000E+01 0.00000000E+00
1.38000000E+01 2.93230000E+01 0.00000000E+00
1.37000000E+01 2.94880000E+01 0.00000000E+00
1.36000000E+01 3.00000000E+01 0.00000000E+00
1.40000000E+01 2.90000000E+01 0.00000000E+00
1.36000000E+01 2.96540000E+01 0.00000000E+00
1.38290000E+01 2.90900000E+01 0.00000000E+00
1.35000000E+01 2.98270000E+01 0.00000000E+00
1.36000000E+01 2.93150000E+01 0.00000000E+00
1.35000000E+01 2.94800000E+01 0.00000000E+00
1.34000000E+01 3.00000000E+01 0.00000000E+00
1.38570000E+01 2.88570000E+01 0.00000000E+00
1.34000000E+01 2.96540000E+01 0.00000000E+00
1.36290000E+01 2.90820000E+01 0.00000000E+00
1.33000000E+01 2.98270000E+01 0.00000000E+00
1.34000000E+01 2.93070000E+01 0.00000000E+00
1.33000000E+01 2.94800000E+01 0.00000000E+00
1.32000000E+01 3.00000000E+01 0.00000000E+00
1.35640000E+01 2.88970000E+01 0.00000000E+00
1.37140000E+01 2.87140000E+01 0.00000000E+00
1.32000000E+01 2.96540000E+01 0.00000000E+00
1.33360000E+01 2.91220000E+01 0.00000000E+00
1.31000000E+01 2.98270000E+01 0.00000000E+00
1.32000000E+01 2.93070000E+01 0.00000000E+00
1.31000000E+01 2.94800000E+01 0.00000000E+00
1.30000000E+01 3.00000000E+01 0.00000000E+00
1.34210000E+01 2.87540000E+01 0.00000000E+00
1.35710000E+01 2.85710000E+01 0.00000000E+00
1.32710000E+01 2.89360000E+01 0.00000000E+00
1.30000000E+01 2.96540000E+01 0.00000000E+00
1.31360000E+01 2.91220000E+01 0.00000000E+00
1.29000000E+01 2.98270000E+01 0.00000000E+00
1.30000000E+01 2.93070000E+01 0.00000000E+00
1.29000000E+01 2.94800000E+01 0.00000000E+00
1.28000000E+01 3.00000000E+01 0.00000000E+00
1.32860000E+01 2.85930000E+01 0.00000000E+00
1.34290000E+01 2.84290000E+01 0.00000000E+00
1.28000000E+01 2.96540000E+01 0.00000000E+00
1.30360000E+01 2.89490000E+01 0.00000000E+00
1.31360000E+01 2.87750000E+01 0.00000000E+00
1.29000000E+01 2.91340000E+01 0.00000000E+00
1.28000000E+01 2.93070000E+01 0.00000000E+00
1.27000000E+01 2.98270000E+01 0.00000000E+00
1.27000000E+01 2.94800000E+01 0.00000000E+00
1.26000000E+01 3.00000000E+01 0.00000000E+00
1.31430000E+01 2.84500000E+01 0.00000000E+00
1.32860000E+01 2.82860000E+01 0.00000000E+00
1.26000000E+01 2.96540000E+01 0.00000000E+00
1.29000000E+01 2.87880000E+01 0.00000000E+00
1.28000000E+01 2.89610000E+01 0.00000000E+00
1.30000000E+01 2.86140000E+01 0.00000000E+00
1.27000000E+01 2.91340000E+01 0.00000000E+00
1.26000000E+01 2.93070000E+01 0.00000000E+00
1.25000000E+01 2.98270000E+01 0.00000000E+00
1.25000000E+01 2.94800000E+01 0.00000000E+00
1.24000000E+01 3.00000000E+01 0.00000000E+00
1.27000000E+01 2.87880000E+01 0.00000000E+00
1.28000000E+01 2.86140000E+01 0.00000000E+00
1.30430000E+01 2.82770000E+01 0.00000000E+00
1.26000000E+01 2.89610000E+01 0.00000000E+00
1.29000000E+01 2.84410000E+01 0.00000000E+00
1.24000000E+01 2.96540000E+01 0.00000000E+00
1.31430000E+01 2.81430000E+01 0.00000000E+00
1.25000000E+01 2.91340000E+01 0.00000000E+00
1.24000000E+01 2.93070000E+01 0.00000000E+00
1.23000000E+01 2.98270000E+01 0.00000000E+00
1.23000000E+01 2.94800000E+01 0.00000000E+00
1.26000000E+01 2.86140000E+01 0.00000000E+00
1.25000000E+01 2.87880000E+01 0.00000000E+00
1.27000000E+01 2.84410000E+01 0.00000000E+00
1.22000000E+01 3.00000000E+01 0.00000000E+00
1.24000000E+01 2.89610000E+01 0.00000000E+00
1.28000000E+01 2.82680000E+01 0.00000000E+00
1.29000000E+01 2.81340000E+01 0.00000000E+00
1.22000000E+01 2.96540000E+01 0.00000000E+00
1.30000000E+01 2.80000000E+01 0.00000000E+00
1.23000000E+01 2.91340000E+01 0.00000000E+00
1.22000000E+01 2.93070000E+01 0.00000000E+00
1.21000000E+01 2.98270000E+01 0.00000000E+00
1.21000000E+01 2.94800000E+01 0.00000000E+00
1.24000000E+01 2.86140000E+01 0.00000000E+00
1.25100000E+01 2.84240000E+01 0.00000000E+00
1.23000000E+01 2.87880000E+01 0.00000000E+00
1.26100000E+01 2.82510000E+01 0.00000000E+00
1.22000000E+01 2.89610000E+01 0.00000000E+00
1.20000000E+01 3.00000000E+01 0.00000000E+00
1.27570000E+01 2.79910000E+01 0.00000000E+00
1.20000000E+01 2.96540000E+01 0.00000000E+00
1.21000000E+01 2.91340000E+01 0.00000000E+00
1.28570000E+01 2.78570000E+01 0.00000000E+00
1.20000000E+01 2.93070000E+01 0.00000000E+00
1.19000000E+01 2.98270000E+01 0.00000000E+00
1.23100000E+01 2.84240000E+01 0.00000000E+00
1.22000000E+01 2.86140000E+01 0.00000000E+00
1.24190000E+01 2.82330000E+01 0.00000000E+00
1.19000000E+01 2.94800000E+01 0.00000000E+00
1.21000000E+01 2.87880000E+01 0.00000000E+00
1.25670000E+01 2.79740000E+01 0.00000000E+00
1.20000000E+01 2.89610000E+01 0.00000000E+00
1.18000000E+01 3.00000000E+01 0.00000000E+00
1.18000000E+01 2.96540000E+01 0.00000000E+00
1.19000000E+01 2.91340000E+01 0.00000000E+00
1.27140000E+01 2.77140000E+01 0.00000000E+00
1.18000000E+01 2.93070000E+01 0.00000000E+00
1.21000000E+01 2.84410000E+01 0.00000000E+00
1.22100000E+01 2.82510000E+01 0.00000000E+00
1.17000000E+01 2.98270000E+01 0.00000000E+00
1.20000000E+01 2.86140000E+01 0.00000000E+00
1.23280000E+01 2.80410000E+01 0.00000000E+00
1.19000000E+01 2.87880000E+01 0.00000000E+00
1.17000000E+01 2.94800000E+01 0.00000000E+00
1.24750000E+01 2.77810000E+01 0.00000000E+00
1.18000000E+01 2.89610000E+01 0.00000000E+00
1.16000000E+01 3.00000000E+01 0.00000000E+00
1.17000000E+01 2.91340000E+01 0.00000000E+00
1.16000000E+01 2.96540000E+01 0.00000000E+00
1.25710000E+01 2.75710000E+01 0.00000000E+00
1.20000000E+01 2.82680000E+01 0.00000000E+00
1.16000000E+01 2.93070000E+01 0.00000000E+00
1.19000000E+01 2.84410000E+01 0.00000000E+00
1.21180000E+01 2.80580000E+01 0.00000000E+00
1.18000000E+01 2.86140000E+01 0.00000000E+00
1.22360000E+01 2.78480000E+01 0.00000000E+00
1.15000000E+01 2.98270000E+01 0.00000000E+00
1.17000000E+01 2.87880000E+01 0.00000000E+00
1.15000000E+01 2.94800000E+01 0.00000000E+00
1.16000000E+01 2.89610000E+01 0.00000000E+00
1.23320000E+01 2.76380000E+01 0.00000000E+00
1.14000000E+01 3.00000000E+01 0.00000000E+00
1.15000000E+01 2.91340000E+01 0.00000000E+00
1.14000000E+01 2.96540000E+01 0.00000000E+00
1.24290000E+01 2.74290000E+01 0.00000000E+00
1.18000000E+01 2.82680000E+01 0.00000000E+00
1.19000000E+01 2.80950000E+01 0.00000000E+00
1.17000000E+01 2.84410000E+01 0.00000000E+00
1.20180000E+01 2.78850000E+01 0.00000000E+00
1.14000000E+01 2.93070000E+01 0.00000000E+00
1.16000000E+01 2.86140000E+01 0.00000000E+00
1.21460000E+01 2.76850000E+01 0.00000000E+00
1.13000000E+01 2.98270000E+01 0.00000000E+00
1.15000000E+01 2.87880000E+01 0.00000000E+00
1.13000000E+01 2.94800000E+01 0.00000000E+00
1.22420000E+01 2.74750000E+01 0.00000000E+00
1.14000000E+01 2.89610000E+01 0.00000000E+00
1.12000000E+01 3.00000000E+01 0.00000000E+00
1.13000000E+01 2.91340000E+01 0.00000000E+00
1.17000000E+01 2.80950000E+01 0.00000000E+00
1.12000000E+01 2.96540000E+01 0.00000000E+00
1.16000000E+01 2.82680000E+01 0.00000000E+00
1.18000000E+01 2.79220000E+01 0.00000000E+00
1.19280000E+01 2.77220000E+01 0.00000000E+00
1.15000000E+01 2.84410000E+01 0.00000000E+00
1.22860000E+01 2.72860000E+01 0.00000000E+00
1.20560000E+01 2.75220000E+01 0.00000000E+00
1.14000000E+01 2.86140000E+01 0.00000000E+00
1.12000000E+01 2.93070000E+01 0.00000000E+00
1.13000000E+01 2.87880000E+01 0.00000000E+00
1.11000000E+01 2.98270000E+01 0.00000000E+00
1.11000000E+01 2.94800000E+01 0.00000000E+00
1.12000000E+01 2.89610000E+01 0.00000000E+00
1.20990000E+01 2.73320000E+01 0.00000000E+00
1.15000000E+01 2.80950000E+01 0.00000000E+00
1.16000000E+01 2.79220000E+01 0.00000000E+00
1.11000000E+01 2.91340000E+01 0.00000000E+00
1.14000000E+01 2.82680000E+01 0.00000000E+00
1.17000000E+01 2.77480000E+01 0.00000000E+00
1.10000000E+01 3.00000000E+01 0.00000000E+00
1.18280000E+01 2.75480000E+01 0.00000000E+00
1.10000000E+01 2.96540000E+01 0.00000000E+00
1.13000000E+01 2.84410000E+01 0.00000000E+00
1.19380000E+01 2.73930000E+01 0.00000000E+00
1.21430000E+01 2.71430000E+01 0.00000000E+00
1.12000000E+01 2.86140000E+01 0.00000000E+00
1.10000000E+01 2.93070000E+01 0.00000000E+00
1.11000000E+01 2.87880000E+01 0.00000000E+00
1.09000000E+01 2.98270000E+01 0.00000000E+00
1.19810000E+01 2.72040000E+01 0.00000000E+00
1.10000000E+01 2.89610000E+01 0.00000000E+00
1.09000000E+01 2.94800000E+01 0.00000000E+00
1.14000000E+01 2.79220000E+01 0.00000000E+00
1.13000000E+01 2.80950000E+01 0.00000000E+00
1.15000000E+01 2.77480000E+01 0.00000000E+00
1.12000000E+01 2.82680000E+01 0.00000000E+00
1.16000000E+01 2.75750000E+01 0.00000000E+00
1.17100000E+01 2.74200000E+01 0.00000000E+00
1.09000000E+01 2.91340000E+01 0.00000000E+00
1.18200000E+01 2.72640000E+01 0.00000000E+00
1.08000000E+01 3.00000000E+01 0.00000000E+00
1.11000000E+01 2.84410000E+01 0.00000000E+00
1.08000000E+01 2.96540000E+01 0.00000000E+00
1.10000000E+01 2.86140000E+01 0.00000000E+00
1.20000000E+01 2.70000000E+01 0.00000000E+00
1.08000000E+01 2.93070000E+01 0.00000000E+00
1.09000000E+01 2.87880000E+01 0.00000000E+00
1.07000000E+01 2.98270000E+01 0.00000000E+00
[...]
POINT_DATA    20529
SCALARS Ux float
LOOKUP_TABLE default
1.00000000E+00
9.99986761E-01
1.00000000E+00
9.99957570E-01
9.99934865E-01
1.00000000E+00
9.99932016E-01
9.99858285E-01
1.00000000E+00
9.99835447E-01
9.99737534E-01
1.00000000E+00
9.99835207E-01
9.99675522E-01
9.99590384E-01
1.00000000E+00
9.99635619E-01
9.99789224E-01
9.99510397E-01
9.99404758E-01
1.00000000E+00
9.99606174E-01
9.99457834E-01
9.99807526E-01
9.99312088E-01
9.99594538E-01
9.99408681E-01
9.99193617E-01
1.00000000E+00
9.99239648E-01
9.99770250E-01
9.99080756E-01
9.99388968E-01
9.99180493E-01
9.98942064E-01
1.00000000E+00
9.98995300E-01
9.99571553E-01
9.98816260E-01
9.99140796E-01
9.98915750E-01
9.98664645E-01
9.99656722E-01
1.00000000E+00
9.98710486E-01
9.99169870E-01
9.98518640E-01
9.98862899E-01
9.98617786E-01
9.98346906E-01
9.99610346E-01
1.00000000E+00
9.99230940E-01
9.98399920E-01
9.98880594E-01
9.98188005E-01
9.98545046E-01
9.98287205E-01
9.98003394E-01
9.99608877E-01
1.00000000E+00
9.98049092E-01
9.98865645E-01
9.99182628E-01
9.98484489E-01
9.98201186E-01
9.97824373E-01
9.97923251E-01
9.97619691E-01
9.99566747E-01
1.00000000E+00
9.97672579E-01
9.98781371E-01
9.98444354E-01
9.99139586E-01
9.98120858E-01
9.97817347E-01
9.97427811E-01
9.97526820E-01
9.97210282E-01
9.98417687E-01
9.98795928E-01
9.99647681E-01
9.98067934E-01
9.99178913E-01
9.97255879E-01
1.00000000E+00
9.97724121E-01
9.97407748E-01
9.96998328E-01
9.97096961E-01
9.98411750E-01
9.98020409E-01
9.98814932E-01
9.96760781E-01
9.97650896E-01
9.99238603E-01
9.99614583E-01
9.96813522E-01
1.00000000E+00
9.97294256E-01
9.96957940E-01
9.96536000E-01
9.96634708E-01
9.98001733E-01
9.98459681E-01
9.97590506E-01
9.98906290E-01
9.97207921E-01
9.96285647E-01
9.99582738E-01
9.96331076E-01
9.96831434E-01
1.00000000E+00
9.96482402E-01
9.96040848E-01
9.98030874E-01
9.97550808E-01
9.98534937E-01
9.96139060E-01
9.97126683E-01
9.99244865E-01
9.96724642E-01
9.95770573E-01
9.95823063E-01
9.96335536E-01
1.00000000E+00
9.95966802E-01
9.97522555E-01
9.98047078E-01
9.95513002E-01
9.97073972E-01
9.98628050E-01
9.96630554E-01
9.95611196E-01
9.99402819E-01
9.96215607E-01
9.95229988E-01
9.95806895E-01
9.95275148E-01
1.00000000E+00
9.97514253E-01
9.95425593E-01
9.97025180E-01
9.98117770E-01
9.96556848E-01
9.98751340E-01
9.94952495E-01
9.96100587E-01
9.95050060E-01
9.95666460E-01
9.99358699E-01
9.94649700E-01
9.95245287E-01
9.94701815E-01
1.00000000E+00
9.97003463E-01
9.97518203E-01
9.96494796E-01
9.98170759E-01
9.94844542E-01
9.96013962E-01
9.98841180E-01
9.94359519E-01
9.95538581E-01
9.94456956E-01
9.99492447E-01
9.95091664E-01
9.94044085E-01
9.94651178E-01
9.96986859E-01
9.94088860E-01
9.96452209E-01
9.97542611E-01
9.98234338E-01
9.95931021E-01
1.00000000E+00
9.98950241E-01
9.95430769E-01
9.94238046E-01
9.94942696E-01
9.93734123E-01
9.93830783E-01
9.94476967E-01
9.99457669E-01
9.96422140E-01
9.96997566E-01
9.94024247E-01
9.95874969E-01
9.97581090E-01
9.93399107E-01
9.98320899E-01
9.93450699E-01
9.95334407E-01
9.98927488E-01
1.00000000E+00
9.94821860E-01
9.93592015E-01
9.94315100E-01
9.93076577E-01
9.99463026E-01
9.93836783E-01
9.93172964E-01
9.96411526E-01
9.95823605E-01
9.97015199E-01
9.95257127E-01
9.97638058E-01
9.98265054E-01
9.93365147E-01
9.98907420E-01
9.92729056E-01
9.94704337E-01
9.92773306E-01
9.94172820E-01
1.00000000E+00
9.92920769E-01
9.93653634E-01
9.92386944E-01
9.99429034E-01
9.93157008E-01
9.92482384E-01
9.96415009E-01
9.95799206E-01
9.95192008E-01
9.97058369E-01
9.97773380E-01
9.98440204E-01
9.94613328E-01
9.92673444E-01
9.94041705E-01
9.92020108E-01
9.92070998E-01
9.93498219E-01
1.00000000E+00
9.92210415E-01
9.92960918E-01
9.98971693E-01
9.91665587E-01
9.95781219E-01
9.97175915E-01
9.95145791E-01
9.96436758E-01
9.97935739E-01
9.92451987E-01
9.94526502E-01
9.91760572E-01
9.93929109E-01
9.93345655E-01
9.91950028E-01
9.91286428E-01
9.91329985E-01
9.92783798E-01
9.99197363E-01
1.00000000E+00
9.91475164E-01
9.92234429E-01
9.95113239E-01
9.95788198E-01
9.98111769E-01
9.94466180E-01
9.96470291E-01
9.97253472E-01
9.90912592E-01
9.93828271E-01
9.91707823E-01
9.91006434E-01
9.93219088E-01
9.92617470E-01
9.91194324E-01
9.90514463E-01
9.92044061E-01
9.90564440E-01
9.99151835E-01
9.98310930E-01
1.00000000E+00
9.90701378E-01
9.95098203E-01
9.97415365E-01
9.91477290E-01
9.94411658E-01
9.95799506E-01
9.93745651E-01
9.96523579E-01
9.93096113E-01
9.90128429E-01
9.90938749E-01
9.92468951E-01
9.90221595E-01
9.91855992E-01
9.90407507E-01
9.91264962E-01
9.89718213E-01
9.89760878E-01
9.94381615E-01
9.95094946E-01
9.93676170E-01
9.95838065E-01
9.97528208E-01
9.99331652E-01
9.98446955E-01
9.89903115E-01
9.90686578E-01
9.92999046E-01
9.96588971E-01
1.00000000E+00
9.92331690E-01
9.89313209E-01
9.91693250E-01
9.90131142E-01
9.89405013E-01
9.91062957E-01
9.89588839E-01
9.90460892E-01
9.94355222E-01
9.88884464E-01
9.93623505E-01
9.95110425E-01
9.88933280E-01
9.92907036E-01
9.95880447E-01
9.92211789E-01
9.96677110E-01
9.97631926E-01
9.98600659E-01
9.89865978E-01
9.99297718E-01
9.89067065E-01
1.00000000E+00
9.91533392E-01
9.90877886E-01
9.88467531E-01
9.89299072E-01
9.88558397E-01
9.90236856E-01
9.88739822E-01
9.93582027E-01
9.94355631E-01
9.92838820E-01
9.95138222E-01
9.89618091E-01
9.92104376E-01
9.95953757E-01
9.88026994E-01
9.88068539E-01
9.91398672E-01
9.96775480E-01
9.97779410E-01
9.89012128E-01
9.88207078E-01
9.90703457E-01
9.99263434E-01
1.00000000E+00
9.90037303E-01
9.88429264E-01
9.87591532E-01
9.87680790E-01
9.89379952E-01
9.93558388E-01
9.92773321E-01
9.94358849E-01
9.92012782E-01
9.95186948E-01
9.87859533E-01
9.88750782E-01
9.91268113E-01
9.96028050E-01
9.87133013E-01
9.90545335E-01
9.96893412E-01
9.87180386E-01
9.98428615E-01
9.88129334E-01
9.89839799E-01
9.87310250E-01
1.00000000E+00
9.89157684E-01
9.87535570E-01
9.86685958E-01
9.88490328E-01
9.92733904E-01
9.93546351E-01
9.86773971E-01
9.91931598E-01
9.94392326E-01
9.91160396E-01
9.95245537E-01
9.90398956E-01
9.96130566E-01
9.86949846E-01
9.87845574E-01
9.97202915E-01
9.89666493E-01
9.86216016E-01
9.98816023E-01
9.86256174E-01
9.88945308E-01
9.87213764E-01
9.86390161E-01
1.00000000E+00
9.88253305E-01
9.92696287E-01
9.86605147E-01
9.91866726E-01
9.93554158E-01
9.85750977E-01
9.91054076E-01
9.94425782E-01
9.87570864E-01
9.90267509E-01
9.95323096E-01
9.85837100E-01
9.96422520E-01
9.89496323E-01
9.86009634E-01
9.86916461E-01
9.97552417E-01
9.88747953E-01
9.85263735E-01
9.98760698E-01
9.85309317E-01
9.88017338E-01
9.86270407E-01
9.85434394E-01
9.87310736E-01
1.00000000E+00
9.91813771E-01
9.92688220E-01
9.93571170E-01
9.94486784E-01
9.85651585E-01
9.84787515E-01
9.86619189E-01
9.89348124E-01
9.95412427E-01
9.84871986E-01
9.90742439E-01
9.96566053E-01
9.88561358E-01
9.89908455E-01
9.85950524E-01
9.97537456E-01
9.85041168E-01
9.87804305E-01
9.84289305E-01
9.87059614E-01
9.98798353E-01
9.84327724E-01
9.85294906E-01
9.91779200E-01
9.84456137E-01
9.92678768E-01
9.86344066E-01
9.93605846E-01
1.00000000E+00
9.94550035E-01
9.84662685E-01
9.88387982E-01
9.95525044E-01
9.90657610E-01
9.85638869E-01
9.83795789E-01
9.87592883E-01
9.96514628E-01
9.88950100E-01
9.83877958E-01
9.86822013E-01
9.97530093E-01
9.84961393E-01
9.89548795E-01
9.84043112E-01
9.86068841E-01
9.83281102E-01
9.98745201E-01
9.90963314E-01
9.83324456E-01
9.91751882E-01
9.84292989E-01
9.92695963E-01
9.93652253E-01
9.83443263E-01
9.85340408E-01
9.94645839E-01
9.83776226E-01
1.00000000E+00
9.89811308E-01
9.95647761E-01
9.87565133E-01
9.84627090E-01
9.82776957E-01
9.96684389E-01
9.86745986E-01
9.88140180E-01
9.82856787E-01
9.83143291E-01
9.97730537E-01
9.85840497E-01
9.83936355E-01
9.90913405E-01
9.90109243E-01
9.91740579E-01
9.85072004E-01
9.83387758E-01
9.92713651E-01
9.99002562E-01
9.82251881E-01
9.82288413E-01
9.93719001E-01
9.88681467E-01
9.84313644E-01
9.94740603E-01
9.82862168E-01
9.95790377E-01
1.00000000E+00
9.86706186E-01
9.83588128E-01
9.82207892E-01
9.96858094E-01
9.81731202E-01
9.85738973E-01
9.88950225E-01
9.97953392E-01
9.84818248E-01
9.87204915E-01
9.81595485E-01
9.82658405E-01
9.84019995E-01
9.81897999E-01
9.89641849E-01
9.90480866E-01
9.98957775E-01
9.81190782E-01
9.93768125E-01
9.91484641E-01
9.82104790E-01
9.83251346E-01
9.94840338E-01
9.92510709E-01
9.81108106E-01
9.95946099E-01
9.87763124E-01
1.00000000E+00
9.97063410E-01
9.85497121E-01
9.98036322E-01
9.84523091E-01
9.82280179E-01
9.86076694E-01
9.83727241E-01
9.80533081E-01
9.88436763E-01
9.80925885E-01
9.99081340E-01
9.82919893E-01
9.81104372E-01
9.82318000E-01
9.80387940E-01
9.89155912E-01
9.93838495E-01
9.80109186E-01
9.81334346E-01
9.86611237E-01
9.94970775E-01
9.90167024E-01
9.92523423E-01
9.96123651E-01
9.97119413E-01
9.91225328E-01
9.79888786E-01
9.98127885E-01
9.87268330E-01
9.81336437E-01
1.00000000E+00
9.84240459E-01
9.83398204E-01
9.82598861E-01
9.84815037E-01
9.81962901E-01
9.79431819E-01
9.87969194E-01
9.81361986E-01
9.85429563E-01
9.92943461E-01
9.99040763E-01
9.79818445E-01
9.93972943E-01
9.79577013E-01
9.95149898E-01
9.91594839E-01
9.88682907E-01
9.78996714E-01
9.80019673E-01
9.86072277E-01
9.89734056E-01
9.96318736E-01
9.78948850E-01
9.80256679E-01
9.79038876E-01
9.97358555E-01
9.86757622E-01
9.83644774E-01
1.00000000E+00
9.82744977E-01
9.80258967E-01
9.78486754E-01
9.81915761E-01
9.90506357E-01
9.84243423E-01
9.81150157E-01
9.87450298E-01
9.92002512E-01
9.80528682E-01
9.93053362E-01
9.98281709E-01
9.94123315E-01
9.84847505E-01
9.95313728E-01
9.88190478E-01
9.77988799E-01
9.78074988E-01
9.85511662E-01
9.77866263E-01
9.78421552E-01
9.78684175E-01
9.78188805E-01
9.96531752E-01
9.78898423E-01
9.90883607E-01
9.79143751E-01
9.83033441E-01
9.86219462E-01
9.88939849E-01
9.82099302E-01
1.00000000E+00
9.81214326E-01
9.79392270E-01
9.77343025E-01
9.83617827E-01
9.80421774E-01
9.91789384E-01
9.92877875E-01
9.86936888E-01
9.79671426E-01
9.94174070E-01
9.84244000E-01
9.98211097E-01
9.89739555E-01
9.77097648E-01
9.77196420E-01
9.95413994E-01
9.77339514E-01
9.77588594E-01
9.77807023E-01
9.87663950E-01
9.84927646E-01
9.76709158E-01
9.90631021E-01
9.78033182E-01
9.96829352E-01
9.78261052E-01
9.82375377E-01
9.85660203E-01
9.76430334E-01
9.88439232E-01
9.79776123E-01
9.91569694E-01
9.81355643E-01
9.78519294E-01
1.00000000E+00
9.80439746E-01
9.82981130E-01
9.79000742E-01
9.92879276E-01
9.86363007E-01
9.76194890E-01
9.76321113E-01
9.94232537E-01
9.83651148E-01
9.89248834E-01
9.76479448E-01
9.76684453E-01
9.98606100E-01
9.76912018E-01
9.87110519E-01
9.84358042E-01
9.95670381E-01
9.77120363E-01
9.75535380E-01
9.90171592E-01
9.77357072E-01
9.77817551E-01
9.81695030E-01
9.85048301E-01
9.75275883E-01
9.78316855E-01
9.97165712E-01
9.87896159E-01
9.80645092E-01
9.78952041E-01
9.82342447E-01
1.00000000E+00
9.91451177E-01
9.79638838E-01
9.75231454E-01
9.94496739E-01
9.75373128E-01
9.75021150E-01
9.85772512E-01
9.92826817E-01
9.83033504E-01
9.75531104E-01
9.75745438E-01
9.88736784E-01
9.76057143E-01
9.98547053E-01
9.76276361E-01
9.96003098E-01
9.86568738E-01
9.80448664E-01
9.83698552E-01
9.74333679E-01
9.79409712E-01
9.76499930E-01
9.97362034E-01
9.89991850E-01
9.76975300E-01
9.81052352E-01
9.84411678E-01
9.74068577E-01
9.77384424E-01
9.87380959E-01
9.78032457E-01
9.81720699E-01
9.74255565E-01
1.00000000E+00
9.74029947E-01
9.74397346E-01
9.94791282E-01
9.93048508E-01
9.73826007E-01
9.74563872E-01
9.91331700E-01
9.85179442E-01
9.74860129E-01
9.82349547E-01
9.75185035E-01
9.78369779E-01
9.98797275E-01
9.79183443E-01
9.96165106E-01
9.88234957E-01
9.75390418E-01
9.79763528E-01
9.97580400E-01
9.83033339E-01
9.86000387E-01
9.75621971E-01
9.73117856E-01
9.80386495E-01
9.76004682E-01
9.89537152E-01
9.83792195E-01
9.78118430E-01
9.76421728E-01
9.93612227E-01
9.72847901E-01
9.73098515E-01
9.86824984E-01
9.91829684E-01
9.73269940E-01
9.80992007E-01
9.72886247E-01
9.73418665E-01
9.95145745E-01
1.00000000E+00
9.73577974E-01
9.73882581E-01
9.84583721E-01
9.76719217E-01
9.74212897E-01
9.81639794E-01
9.96584928E-01
9.78436274E-01
9.98743786E-01
9.87709173E-01
9.74422197E-01
9.85560195E-01
9.77050230E-01
9.79031481E-01
9.82369348E-01
9.90551366E-01
9.74637082E-01
9.71880059E-01
9.92370343E-01
9.79621038E-01
9.71887679E-01
9.75026065E-01
9.83147758E-01
9.86411104E-01
9.71934733E-01
9.72088900E-01
9.93930507E-01
9.77340980E-01
9.72268505E-01
9.75474456E-01
9.80242519E-01
9.72409996E-01
9.95530696E-01
9.84096838E-01
9.97751091E-01
9.72573107E-01
9.72882960E-01
1.00000000E+00
9.75773058E-01
9.88656843E-01
9.73218739E-01
9.80942187E-01
9.77664300E-01
9.85101708E-01
9.91063053E-01
9.73411003E-01
9.87124012E-01
9.78226037E-01
9.76049066E-01
9.81691030E-01
9.73626343E-01
9.92509285E-01
9.70720946E-01
9.78823931E-01
9.74045413E-01
9.70750470E-01
9.70628647E-01
9.70907497E-01
9.71312267E-01
9.71073775E-01
9.94140690E-01
9.85772556E-01
9.74496827E-01
9.76333654E-01
9.71460340E-01
9.79497286E-01
9.71647295E-01
9.89704077E-01
9.95636012E-01
9.71964554E-01
9.76923363E-01
9.97949336E-01
9.82669925E-01
9.72294616E-01
9.74740209E-01
1.00000000E+00
9.88091791E-01
9.80215531E-01
9.77488198E-01
9.91150097E-01
9.72489486E-01
9.83673971E-01
9.86501694E-01
9.75011823E-01
9.72736205E-01
9.78117940E-01
9.92674686E-01
9.69700175E-01
9.70094727E-01
9.73164515E-01
9.69558065E-01
9.70342368E-01
9.75565604E-01
9.69868826E-01
9.69450983E-01
9.70512341E-01
9.69357828E-01
9.81139981E-01
9.78800940E-01
9.94191236E-01
9.73601602E-01
9.76157622E-01
9.84323065E-01
9.70703723E-01
9.71014170E-01
9.95756044E-01
9.88800389E-01
9.71348829E-01
9.97860097E-01
9.76749536E-01
9.73845282E-01
9.79320375E-01
1.00000000E+00
9.87137613E-01
9.71574592E-01
9.77385071E-01
9.90042411E-01
9.82173250E-01
9.74162396E-01
9.71823589E-01
9.68538250E-01
9.68692486E-01
9.69056260E-01
9.68824816E-01
9.69309565E-01
9.72235716E-01
9.85607198E-01
9.74724483E-01
9.91599595E-01
9.69480769E-01
9.68171151E-01
9.72679055E-01
9.77860414E-01
9.80250395E-01
9.68077682E-01
9.96407084E-01
9.69657463E-01
9.75292503E-01
9.69968079E-01
9.98597055E-01
9.70310077E-01
9.87835819E-01
9.72968458E-01
9.83339180E-01
9.92958605E-01
9.75892349E-01
9.78376483E-01
9.70532034E-01
1.00000000E+00
9.94587228E-01
9.80636160E-01
9.73283930E-01
9.89100801E-01
9.67511469E-01
9.86237902E-01
9.67630869E-01
9.70756343E-01
9.67766166E-01
9.68002602E-01
9.76303658E-01
9.68257774E-01
9.81627672E-01
9.67124753E-01
9.71167055E-01
9.73818912E-01
9.68414170E-01
9.97113676E-01
9.71618583E-01
9.90439556E-01
9.68588509E-01
9.78689822E-01
9.66780600E-01
9.74392581E-01
9.84639428E-01
9.68904255E-01
9.76775878E-01
9.69244570E-01
9.98533221E-01
9.71899140E-01
9.87450939E-01
9.95230355E-01
9.91823864E-01
9.69441130E-01
9.74763076E-01
9.66514102E-01
9.82839487E-01
1.00000000E+00
9.66637401E-01
9.66233854E-01
9.66760889E-01
9.67000276E-01
9.79036915E-01
9.67288306E-01
9.72177742E-01
9.77194866E-01
9.88767352E-01
9.69658114E-01
9.85786072E-01
9.67444935E-01
9.96772412E-01
9.65863036E-01
9.80018351E-01
9.93293593E-01
9.70074845E-01
9.72707832E-01
9.75164717E-01
9.67599348E-01
9.81050227E-01
9.70523232E-01
9.90141432E-01
9.67916137E-01
9.73298387E-01
9.65473377E-01
9.98241552E-01
9.68299209E-01
9.94807915E-01
9.77492502E-01
9.70764736E-01
9.87041712E-01
9.68491384E-01
9.65506621E-01
9.75533756E-01
9.84080152E-01
9.91591407E-01
9.65617105E-01
9.65220808E-01
9.78349732E-01
9.73654244E-01
9.66012726E-01
9.65740897E-01
9.66302327E-01
9.64953169E-01
1.00000000E+00
9.68682033E-01
9.79347468E-01
9.71029064E-01
9.96401598E-01
9.88389365E-01
9.66437620E-01
9.69096394E-01
9.82186462E-01
9.64546583E-01
9.93096769E-01
9.71572669E-01
9.75942936E-01
9.66588885E-01
9.74000695E-01
9.69599999E-01
9.66948379E-01
9.85282932E-01
9.67329080E-01
9.89826157E-01
9.72157205E-01
9.76760261E-01
9.64154203E-01
9.98156559E-01
9.80197897E-01
9.64297377E-01
9.69834736E-01
9.94679995E-01
9.64427705E-01
9.67492506E-01
9.64022341E-01
9.64777034E-01
9.64538071E-01
9.77626655E-01
9.86613583E-01
9.65047791E-01
9.63896212E-01
9.74355254E-01
9.91312151E-01
9.65210239E-01
9.72458297E-01
9.67674081E-01
1.00000000E+00
9.70063469E-01
9.63492926E-01
9.65339446E-01
9.75122112E-01
9.96329208E-01
9.83475295E-01
9.68144200E-01
9.88020648E-01
9.65651325E-01
9.66006278E-01
9.78418851E-01
9.68645565E-01
9.70606203E-01
9.92885753E-01
9.75939512E-01
9.72787849E-01
9.81348046E-01
9.66206764E-01
9.84770417E-01
9.71260384E-01
9.89491181E-01
9.63086473E-01
9.62956219E-01
9.63207060E-01
9.62828836E-01
9.98163561E-01
9.63562300E-01
9.62835372E-01
9.63800159E-01
9.63336932E-01
9.73498605E-01
9.68842308E-01
9.66357157E-01
9.94516789E-01
9.63942898E-01
9.79285429E-01
9.86151820E-01
9.76469226E-01
9.66761229E-01
9.64098458E-01
9.71554910E-01
9.74266797E-01
9.91042947E-01
9.64388065E-01
9.67225405E-01
9.64694315E-01
9.69058844E-01
1.00000000E+00
9.82476437E-01
9.62162842E-01
9.87597017E-01
9.96245557E-01
9.64866100E-01
9.69672385E-01
9.77249639E-01
9.67471136E-01
9.92663797E-01
9.74735723E-01
9.71838973E-01
9.70329051E-01
9.80288320E-01
9.65053284E-01
9.83789659E-01
9.61957141E-01
9.61789604E-01
9.62511164E-01
9.62287413E-01
9.62076629E-01
9.65426330E-01
9.61669292E-01
9.89130110E-01
9.62641519E-01
9.61495446E-01
9.72555439E-01
9.98069405E-01
9.67647747E-01
9.65822572E-01
9.78266005E-01
9.62778404E-01
9.94380108E-01
9.63047372E-01
9.85675469E-01
9.75242623E-01
9.68168986E-01
9.63330201E-01
9.73397661E-01
9.70573588E-01
9.90724081E-01
9.66028616E-01
9.68777811E-01
9.60993188E-01
9.63484605E-01
9.81404074E-01
1.00000000E+00
9.87173033E-01
9.96172204E-01
9.76170592E-01
9.63642064E-01
9.66256418E-01
9.73859007E-01
9.92427893E-01
9.70843296E-01
9.63991862E-01
9.79263764E-01
9.61224248E-01
9.61016182E-01
9.69078916E-01
9.60651559E-01
9.60817103E-01
9.83199670E-01
9.66737703E-01
9.60496102E-01
9.64355827E-01
9.61339217E-01
9.71633149E-01
9.88749098E-01
9.61462526E-01
9.67251173E-01
9.61710767E-01
9.60158213E-01
9.98099903E-01
9.77182697E-01
9.61974082E-01
9.64537405E-01
9.79969898E-01
9.94205576E-01
9.72480156E-01
9.74327926E-01
9.85154058E-01
9.69296789E-01
9.62102272E-01
9.90423258E-01
9.67500307E-01
9.59652440E-01
9.64724435E-01
9.62241402E-01
9.77808926E-01
9.81199003E-01
9.69938361E-01
9.62559983E-01
1.00000000E+00
9.86687843E-01
9.96099001E-01
9.65178518E-01
9.59986689E-01
9.75262813E-01
9.59792185E-01
9.72897599E-01
9.62898240E-01
9.59589627E-01
9.59435934E-01
9.60088206E-01
9.59339533E-01
9.70723946E-01
9.92173114E-01
9.65648956E-01
9.67776287E-01
9.60193261E-01
9.60444560E-01
9.78482962E-01
9.60685394E-01
9.83094722E-01
9.76359706E-01
9.63044074E-01
9.88331796E-01
9.60791587E-01
9.68365282E-01
9.58816283E-01
9.97993811E-01
9.65851201E-01
9.71206454E-01
9.94040392E-01
9.73353809E-01
9.79685273E-01
9.84600660E-01
9.60904744E-01
9.63204059E-01
9.76984999E-01
9.61226302E-01
9.58498633E-01
9.68996864E-01
9.90055778E-01
9.63617503E-01
9.61531228E-01
9.74384102E-01
9.58757883E-01
9.58559235E-01
9.58844887E-01
9.80983725E-01
9.66075817E-01
9.58274510E-01
9.58367195E-01
9.64057399E-01
9.58182916E-01
9.86199572E-01
1.00000000E+00
9.95979387E-01
9.58935542E-01
9.59168161E-01
9.59410518E-01
9.61646710E-01
9.71593200E-01
9.75489121E-01
9.69410214E-01
9.66717049E-01
9.91892877E-01
9.59494201E-01
9.77701696E-01
9.82433143E-01
9.61769854E-01
9.64212067E-01
9.72470433E-01
9.87896724E-01
9.59584844E-01
9.67294209E-01
9.59878555E-01
9.62169132E-01
9.57472860E-01
9.97981255E-01
9.60186430E-01
9.78935861E-01
9.69861204E-01
9.93803001E-01
9.73496003E-01
9.62565747E-01
9.83997312E-01
9.76141734E-01
9.57154082E-01
9.64384669E-01
9.89697983E-01
9.60269323E-01
9.57433564E-01
9.70669106E-01
9.57562748E-01
9.57247193E-01
9.67579429E-01
9.57068594E-01
9.64972153E-01
9.57638900E-01
9.56981323E-01
9.57835051E-01
9.62772861E-01
9.58058310E-01
9.85643187E-01
1.00000000E+00
9.95847445E-01
9.60361243E-01
9.58144501E-01
9.71539075E-01
9.65602467E-01
9.74090628E-01
9.60721739E-01
9.79786898E-01
9.91597509E-01
9.76859066E-01
9.58210953E-01
9.67962843E-01
9.61103392E-01
9.58481498E-01
9.62898322E-01
9.58759929E-01
9.87413707E-01
9.59045053E-01
9.56129203E-01
9.81285367E-01
9.63356581E-01
9.97850330E-01
9.65828155E-01
9.68740067E-01
9.61266442E-01
9.93609427E-01
9.72042339E-01
9.55955179E-01
9.74708929E-01
9.59106591E-01
9.63927014E-01
9.56117245E-01
9.56233459E-01
9.89270487E-01