# vtk DataFile Version 1.0
ECM-CELL DIFFUSION-MECHANICS
ASCII

DATASET UNSTRUCTURED_GRID
POINTS      243 float
1.50000000E+01 3.00000000E+01 0.00000000E+00
-5.00000000E+00 3.00000000E+01 0.00000000E+00
-5.00000000E+00 0.00000000E+00 0.00000000E+00
-2.50000000E+01 0.00000000E+00 0.00000000E+00
-2.69134178E+01 -9.61939812E+00 0.00000000E+00
-2.85355339E+01 -8.53553391E+00 0.00000000E+00
-2.96193981E+01 -6.91341734E+00 0.00000000E+00
-3.00000000E+01 -5.00000000E+00 0.00000000E+00
-2.96193981E+01 -3.08658290E+00 0.00000000E+00
-2.85355339E+01 -1.46446609E+00 0.00000000E+00
-2.69134178E+01 -3.80602330E-01 0.00000000E+00
-2.50000000E+01 -1.00000000E+01 0.00000000E+00
5.00000000E+00 -1.00000000E+01 0.00000000E+00
5.00000000E+00 2.00000000E+01 0.00000000E+00
1.30000000E+01 3.00000000E+01 0.00000000E+00
1.10000000E+01 3.00000000E+01 0.00000000E+00
9.00000000E+00 3.00000000E+01 0.00000000E+00
7.00000000E+00 3.00000000E+01 0.00000000E+00
5.00000000E+00 3.00000000E+01 0.00000000E+00
3.00000000E+00 3.00000000E+01 0.00000000E+00
1.00000000E+00 3.00000000E+01 0.00000000E+00
-1.00000000E+00 3.00000000E+01 0.00000000E+00
-3.00000000E+00 3.00000000E+01 0.00000000E+00
-5.00000000E+00 2.80000000E+01 0.00000000E+00
-5.00000000E+00 2.60000000E+01 0.00000000E+00
-5.00000000E+00 2.40000000E+01 0.00000000E+00
-5.00000000E+00 2.20000000E+01 0.00000000E+00
-5.00000000E+00 2.00000000E+01 0.00000000E+00
-5.00000000E+00 1.80000000E+01 0.00000000E+00
-5.00000000E+00 1.60000000E+01 0.00000000E+00
-5.00000000E+00 1.40000000E+01 0.00000000E+00
-5.00000000E+00 1.20000000E+01 0.00000000E+00
-5.00000000E+00 1.00000000E+01 0.00000000E+00
-5.00000000E+00 8.00000000E+00 0.00000000E+00
-5.00000000E+00 6.00000000E+00 0.00000000E+00
-5.00000000E+00 4.00000000E+00 0.00000000E+00
-5.00000000E+00 2.00000000E+00 0.00000000E+00
-7.00000000E+00 0.00000000E+00 0.00000000E+00
-9.00000000E+00 0.00000000E+00 0.00000000E+00
-1.10000000E+01 0.00000000E+00 0.00000000E+00
-1.30000000E+01 0.00000000E+00 0.00000000E+00
-1.50000000E+01 0.00000000E+00 0.00000000E+00
-1.70000000E+01 0.00000000E+00 0.00000000E+00
-1.90000000E+01 0.00000000E+00 0.00000000E+00
-2.10000000E+01 0.00000000E+00 0.00000000E+00
-2.30000000E+01 0.00000000E+00 0.00000000E+00
3.00000000E+00 -1.00000000E+01 0.00000000E+00
1.00000000E+00 -1.00000000E+01 0.00000000E+00
-1.00000000E+00 -1.00000000E+01 0.00000000E+00
-3.00000000E+00 -1.00000000E+01 0.00000000E+00
-5.00000000E+00 -1.00000000E+01 0.00000000E+00
-7.00000000E+00 -1.00000000E+01 0.00000000E+00
-9.00000000E+00 -1.00000000E+01 0.00000000E+00
-1.10000000E+01 -1.00000000E+01 0.00000000E+00
-1.30000000E+01 -1.00000000E+01 0.00000000E+00
-1.50000000E+01 -1.00000000E+01 0.00000000E+00
-1.70000000E+01 -1.00000000E+01 0.00000000E+00
-1.90000000E+01 -1.00000000E+01 0.00000000E+00
-2.10000000E+01 -1.00000000E+01 0.00000000E+00
-2.30000000E+01 -1.00000000E+01 0.00000000E+00
5.00000000E+00 1.80000000E+01 0.00000000E+00
5.00000000E+00 1.60000000E+01 0.00000000E+00
5.00000000E+00 1.40000000E+01 0.00000000E+00
5.00000000E+00 1.20000000E+01 0.00000000E+00
5.00000000E+00 1.00000000E+01 0.00000000E+00
5.00000000E+00 8.00000000E+00 0.00000000E+00
5.00000000E+00 6.00000000E+00 0.00000000E+00
5.00000000E+00 4.00000000E+00 0.00000000E+00
5.00000000E+00 2.00000000E+00 0.00000000E+00
5.00000000E+00 0.00000000E+00 0.00000000E+00
5.00000000E+00 -2.00000000E+00 0.00000000E+00
5.00000000E+00 -4.00000000E+00 0.00000000E+00
5.00000000E+00 -6.00000000E+00 0.00000000E+00
5.00000000E+00 -8.00000000E+00 0.00000000E+00
6.42857122E+00 2.14285717E+01 0.00000000E+00
7.85714293E+00 2.28571434E+01 0.00000000E+00
9.28571415E+00 2.42857151E+01 0.00000000E+00
1.07142859E+01 2.57142849E+01 0.00000000E+00
1.21428576E+01 2.71428566E+01 0.00000000E+00
1.35714283E+01 2.85714283E+01 0.00000000E+00
-2.63336372E+01 -7.76659107E+00 0.00000000E+00
-2.82226868E+01 -6.43824339E+00 0.00000000E+00
-2.81175652E+01 -4.60588837E+00 0.00000000E+00
-2.61591434E+01 -2.10037327E+00 0.00000000E+00
7.94419193E+00 2.81601086E+01 0.00000000E+00
-3.19118237E+00 2.72962761E+01 0.00000000E+00
-5.94074678E+00 -1.56135583E+00 0.00000000E+00
-3.28010941E+00 6.99999666E+00 0.00000000E+00
-7.98214865E+00 -1.62386549E+00 0.00000000E+00
5.94069958E+00 2.82131767E+01 0.00000000E+00
3.96576309E+00 2.81945496E+01 0.00000000E+00
1.96850979E+00 2.81876316E+01 0.00000000E+00
-9.25469864E-03 2.82110806E+01 0.00000000E+00
-3.19306159E+00 2.51208878E+01 0.00000000E+00
-3.24140286E+00 2.30419273E+01 0.00000000E+00
-3.26721168E+00 2.10157700E+01 0.00000000E+00
-3.29015899E+00 1.90030117E+01 0.00000000E+00
-3.29848814E+00 1.69995918E+01 0.00000000E+00
-3.29507470E+00 1.49994574E+01 0.00000000E+00
-3.28950334E+00 1.29997454E+01 0.00000000E+00
-3.28517389E+00 1.09999161E+01 0.00000000E+00
-3.28540468E+00 8.99997520E+00 0.00000000E+00
-3.28817058E+00 4.99999905E+00 0.00000000E+00
-3.32450199E+00 2.98746324E+00 0.00000000E+00
-3.41863847E+00 9.27179158E-01 0.00000000E+00
-9.99433708E+00 -1.64214647E+00 0.00000000E+00
-1.19982300E+01 -1.64728785E+00 0.00000000E+00
-1.39994688E+01 -1.64868796E+00 0.00000000E+00
-1.59998932E+01 -1.64905524E+00 0.00000000E+00
-1.80005169E+01 -1.65485740E+00 0.00000000E+00
-1.99944210E+01 -1.67004955E+00 0.00000000E+00
-2.19607010E+01 -1.70543468E+00 0.00000000E+00
-2.40205898E+01 -8.05579758E+00 0.00000000E+00
-2.39267063E+01 -1.82353294E+00 0.00000000E+00
2.29777122E+00 -8.18962097E+00 0.00000000E+00
1.23059466E-01 -8.18267441E+00 0.00000000E+00
-1.95802188E+00 -8.22096157E+00 0.00000000E+00
-3.98471189E+00 -8.24636459E+00 0.00000000E+00
-5.99523783E+00 -8.26851940E+00 0.00000000E+00
-7.99814987E+00 -8.27763176E+00 0.00000000E+00
-9.99911308E+00 -8.28131580E+00 0.00000000E+00
-1.19996176E+01 -8.28250790E+00 0.00000000E+00
-1.39998579E+01 -8.28286648E+00 0.00000000E+00
-1.59999981E+01 -8.28308964E+00 0.00000000E+00
-1.80003262E+01 -8.28923416E+00 0.00000000E+00
-1.99951019E+01 -8.28801823E+00 0.00000000E+00
-2.19786606E+01 -8.23145771E+00 0.00000000E+00
3.37062716E+00 1.89233551E+01 0.00000000E+00
3.34054041E+00 1.69807224E+01 0.00000000E+00
3.33640957E+00 1.49944878E+01 0.00000000E+00
3.34315801E+00 1.29984617E+01 0.00000000E+00
3.34957194E+00 1.09995937E+01 0.00000000E+00
3.35198402E+00 8.99989700E+00 0.00000000E+00
3.35113668E+00 6.99997568E+00 0.00000000E+00
3.34448671E+00 4.99999523E+00 0.00000000E+00
3.32652950E+00 2.99973011E+00 0.00000000E+00
3.30527616E+00 9.98020113E-01 0.00000000E+00
3.28119373E+00 -1.01071751E+00 0.00000000E+00
3.25898099E+00 -3.01927686E+00 0.00000000E+00
3.24397135E+00 -5.00071239E+00 0.00000000E+00
1.02151985E+01 2.80007057E+01 0.00000000E+00
8.72700691E+00 2.62242470E+01 0.00000000E+00
4.53118944E+00 2.19883575E+01 0.00000000E+00
7.42255640E+00 2.47146339E+01 0.00000000E+00
6.02210903E+00 2.33871956E+01 0.00000000E+00
-2.49141693E+01 -5.84206676E+00 0.00000000E+00
-2.77587090E+01 -3.09401059E+00 0.00000000E+00
-3.74367332E+00 -1.32242095E+00 0.00000000E+00
3.37542582E+00 -6.68383884E+00 0.00000000E+00
-1.68782008E+00 2.83659058E+01 0.00000000E+00
2.93006825E+00 2.63407249E+01 0.00000000E+00
1.37449419E+00 -6.19837618E+00 0.00000000E+00
-6.99313116E+00 -6.56894302E+00 0.00000000E+00
-8.99560261E+00 -6.58624029E+00 0.00000000E+00
-1.09978485E+01 -6.59370756E+00 0.00000000E+00
-1.29991169E+01 -6.59640884E+00 0.00000000E+00
-1.49997482E+01 -6.59741163E+00 0.00000000E+00
-1.70005054E+01 -6.60687542E+00 0.00000000E+00
-1.89910336E+01 -6.61446953E+00 0.00000000E+00
-2.09443874E+01 -6.58081102E+00 0.00000000E+00
-1.56252813E+00 2.00199757E+01 0.00000000E+00
1.69096434E+00 1.59887323E+01 0.00000000E+00
1.69573748E+00 1.39958906E+01 0.00000000E+00
1.70559001E+00 1.19987364E+01 0.00000000E+00
1.71235800E+00 9.99965000E+00 0.00000000E+00
1.70500433E+00 5.99998617E+00 0.00000000E+00
1.67963386E+00 3.99886894E+00 0.00000000E+00
1.64330435E+00 1.99145818E+00 0.00000000E+00
9.05702949E-01 2.64169083E+01 0.00000000E+00
-1.23154819E+00 2.63408546E+01 0.00000000E+00
-1.48619592E+00 2.40970173E+01 0.00000000E+00
-1.52001476E+00 2.20616055E+01 0.00000000E+00
-1.60393560E+00 1.80015297E+01 0.00000000E+00
1.71200323E+00 7.99990702E+00 0.00000000E+00
1.57110965E+00 -2.04215574E+00 0.00000000E+00
-8.83958101E-01 -6.38697195E+00 0.00000000E+00
-2.94760537E+00 -6.42948389E+00 0.00000000E+00
-4.98543882E+00 -6.52348185E+00 0.00000000E+00
-6.97729588E+00 -3.23084092E+00 0.00000000E+00
-8.98907471E+00 -3.26648521E+00 0.00000000E+00
-1.09956169E+01 -3.28038645E+00 0.00000000E+00
-1.29984198E+01 -3.28506351E+00 0.00000000E+00
-1.49995422E+01 -3.28655887E+00 0.00000000E+00
-1.70005360E+01 -3.29590154E+00 0.00000000E+00
-1.89907722E+01 -3.31196833E+00 0.00000000E+00
-2.09331837E+01 -3.33244610E+00 0.00000000E+00
-1.61828923E+00 1.59975128E+01 0.00000000E+00
-1.61388779E+00 1.39984798E+01 0.00000000E+00
-1.60545456E+00 1.19994555E+01 0.00000000E+00
-1.59979153E+00 9.99984074E+00 0.00000000E+00
-1.59754860E+00 7.99995708E+00 0.00000000E+00
-1.60532558E+00 5.99998999E+00 0.00000000E+00
-1.63823593E+00 3.99409580E+00 0.00000000E+00
-1.70293796E+00 1.96242869E+00 0.00000000E+00
1.60747373E+00 -2.72606201E-02 0.00000000E+00
1.55121040E+00 -4.03328276E+00 0.00000000E+00
4.92077351E+00 2.64265118E+01 0.00000000E+00
1.72852290E+00 1.79747887E+01 0.00000000E+00
-2.27829800E+01 -3.40262842E+00 0.00000000E+00
-2.28547916E+01 -6.42256784E+00 0.00000000E+00
3.40620279E+00 2.06201363E+01 0.00000000E+00
6.79960585E+00 2.64659615E+01 0.00000000E+00
4.04114676E+00 2.42806396E+01 0.00000000E+00
-2.45952816E+01 -3.71108937E+00 0.00000000E+00
1.19858971E+01 2.87429981E+01 0.00000000E+00
-2.63854027E+01 -4.19141436E+00 0.00000000E+00
-2.33982754E+01 -4.86368704E+00 0.00000000E+00
2.28591108E+00 2.22277603E+01 0.00000000E+00
5.53736538E-02 1.69928093E+01 0.00000000E+00
-1.80476701E+00 -1.20870896E-01 0.00000000E+00
-4.98795748E+00 -3.15208316E+00 0.00000000E+00
1.10525833E-02 -4.82521629E+00 0.00000000E+00
-4.00782299E+00 -4.75885105E+00 0.00000000E+00
-5.99015188E+00 -4.85574389E+00 0.00000000E+00
[...]
POINT_DATA      243
SCALARS Ux float
LOOKUP_TABLE default
1.00000000E+00
9.28729742E-01
4.66883267E-01
5.47045155E-17
-1.67988867E-17
1.38777878E-17
4.33680869E-18
4.77048956E-17
-9.97465999E-18
-8.67361738E-18
-3.46944695E-18
4.16333634E-17
4.66915173E-01
1.00000000E+00
9.98690674E-01
9.94425346E-01
9.87505004E-01
9.78319454E-01
9.67338347E-01
9.55708601E-01
9.44869506E-01
9.36127305E-01
9.30793030E-01
9.26666454E-01
9.20719298E-01
9.10220360E-01
8.94641226E-01
8.73612430E-01
8.47344445E-01
8.16645887E-01
7.82659877E-01
7.46441440E-01
7.08697866E-01
6.69711620E-01
6.29271450E-01
5.86344415E-01
5.37577621E-01
3.95890503E-01
3.46992871E-01
3.03829946E-01
2.62929973E-01
2.23069472E-01
1.83673545E-01
1.44316738E-01
1.04219014E-01
6.05304493E-02
4.63735235E-01
4.54903346E-01
4.40117938E-01
4.19670959E-01
3.94041026E-01
3.64072005E-01
3.30812391E-01
2.95307062E-01
2.58393580E-01
2.20637295E-01
1.82346895E-01
1.43551388E-01
1.03687585E-01
5.99721770E-02
8.98888376E-01
8.42570873E-01
7.96729768E-01
7.54828688E-01
7.14893966E-01
6.76263825E-01
6.38887500E-01
6.03139996E-01
5.69753859E-01
5.39709689E-01
5.14021714E-01
4.93514245E-01
4.78619548E-01
4.70095110E-01
1.00000000E+00
1.00000000E+00
1.00000000E+00
1.00000000E+00
1.00000000E+00
1.00000000E+00
1.80141457E-02
8.91602081E-03
1.09444154E-02
1.86287534E-02
9.83893250E-01
9.26953936E-01
4.17497576E-01
6.50331400E-01
3.68044690E-01
9.73178167E-01
9.61289076E-01
9.49280443E-01
9.39080003E-01
9.18695427E-01
9.05536377E-01
8.87061009E-01
8.62963403E-01
8.33880731E-01
8.00956577E-01
7.65417075E-01
7.28196000E-01
6.89800418E-01
6.09416559E-01
5.65677919E-01
5.15891581E-01
3.24088819E-01
2.82761986E-01
2.42698398E-01
2.03253542E-01
1.64069277E-01
1.24994679E-01
8.60391245E-02
4.57652450E-02
4.70259751E-02
4.64069606E-01
4.51626869E-01
4.33238156E-01
4.09526502E-01
3.81055140E-01
3.48828907E-01
3.13945134E-01
2.77379547E-01
2.39828194E-01
2.01709289E-01
1.63222668E-01
1.24484373E-01
8.54393442E-02
9.13607865E-01
8.62975706E-01
8.16991075E-01
7.74583396E-01
7.34180231E-01
6.95036604E-01
6.56950269E-01
6.20118837E-01
5.85106723E-01
5.52824224E-01
5.24324847E-01
5.00782106E-01
4.83181426E-01
9.93328942E-01
9.90898179E-01
9.70120165E-01
9.88373562E-01
9.82888855E-01
4.25828502E-02
1.08234169E-02
4.65849042E-01
4.72980481E-01
9.32696250E-01
9.53793625E-01
4.67775342E-01
3.69013491E-01
3.34044247E-01
2.97249023E-01
2.59511906E-01
2.21304385E-01
1.82873883E-01
1.44630083E-01
1.07463551E-01
8.81988646E-01
8.33117014E-01
7.92461343E-01
7.52564452E-01
7.13349895E-01
6.36837834E-01
5.99988220E-01
5.64921144E-01
9.40569628E-01
9.29771801E-01
9.18817287E-01
9.03751059E-01
8.53934024E-01
6.74740542E-01
5.05704409E-01
4.50718366E-01
4.28753607E-01
4.00972793E-01
3.82978076E-01
3.41914487E-01
3.01488309E-01
2.61774162E-01
2.22513767E-01
1.83524858E-01
1.44995955E-01
1.07872695E-01
8.21225317E-01
7.85642447E-01
7.48426793E-01
7.10278567E-01
6.71501779E-01
6.32134707E-01
5.91934934E-01
5.50608614E-01
5.32913589E-01
4.84519702E-01
9.68006499E-01
8.73940548E-01
7.39286138E-02
7.26667463E-02
9.46581435E-01
9.80119128E-01
9.61974608E-01
4.59340518E-02
9.97377747E-01
2.53390233E-02
6.53750449E-02
9.38123672E-01
8.44807326E-01
5.10448455E-01
4.21508209E-01
4.68253013E-01
4.24799986E-01
3.92620185E-01
3.56527452E-01
3.18541244E-01
2.79977333E-01
2.41278651E-01
2.02577826E-01
1.64149213E-01
4.83479841E-01
6.15386994E-01
5.77327918E-01
4.54441149E-01
5.08650483E-01
5.40821256E-01
6.53847894E-01
6.92479515E-01
7.31139838E-01
7.69693711E-01
8.07855083E-01
9.22936337E-01
9.05959033E-01
8.78635225E-01
1.26821718E-01
9.10753681E-01
9.24530474E-02
9.76436247E-01
4.78312327E-01
4.48820950E-01
9.41492220E-01
9.30723379E-01
2.13656732E-02
