# vtk DataFile Version 1.0
ECM-CELL DIFFUSION-MECHANICS
ASCII

DATASET UNSTRUCTURED_GRID
POINTS      889 float
1.50000000E+01 3.00000000E+01 0.00000000E+00
-5.00000000E+00 3.00000000E+01 0.00000000E+00
-5.00000000E+00 0.00000000E+00 0.00000000E+00
-2.50000000E+01 0.00000000E+00 0.00000000E+00
-2.69134178E+01 -9.61939812E+00 0.00000000E+00
-2.85355339E+01 -8.53553391E+00 0.00000000E+00
-2.96193981E+01 -6.91341734E+00 0.00000000E+00
-3.00000000E+01 -5.00000000E+00 0.00000000E+00
-2.96193981E+01 -3.08658290E+00 0.00000000E+00
-2.85355339E+01 -1.46446609E+00 0.00000000E+00
-2.69134178E+01 -3.80602330E-01 0.00000000E+00
-2.50000000E+01 -1.00000000E+01 0.00000000E+00
5.00000000E+00 -1.00000000E+01 0.00000000E+00
5.00000000E+00 2.00000000E+01 0.00000000E+00
1.30000000E+01 3.00000000E+01 0.00000000E+00
1.10000000E+01 3.00000000E+01 0.00000000E+00
9.00000000E+00 3.00000000E+01 0.00000000E+00
7.00000000E+00 3.00000000E+01 0.00000000E+00
5.00000000E+00 3.00000000E+01 0.00000000E+00
3.00000000E+00 3.00000000E+01 0.00000000E+00
1.00000000E+00 3.00000000E+01 0.00000000E+00
-1.00000000E+00 3.00000000E+01 0.00000000E+00
-3.00000000E+00 3.00000000E+01 0.00000000E+00
-5.00000000E+00 2.80000000E+01 0.00000000E+00
-5.00000000E+00 2.60000000E+01 0.00000000E+00
-5.00000000E+00 2.40000000E+01 0.00000000E+00
-5.00000000E+00 2.20000000E+01 0.00000000E+00
-5.00000000E+00 2.00000000E+01 0.00000000E+00
-5.00000000E+00 1.80000000E+01 0.00000000E+00
-5.00000000E+00 1.60000000E+01 0.00000000E+00
-5.00000000E+00 1.40000000E+01 0.00000000E+00
-5.00000000E+00 1.20000000E+01 0.00000000E+00
-5.00000000E+00 1.00000000E+01 0.00000000E+00
-5.00000000E+00 8.00000000E+00 0.00000000E+00
-5.00000000E+00 6.00000000E+00 0.00000000E+00
-5.00000000E+00 4.00000000E+00 0.00000000E+00
-5.00000000E+00 2.00000000E+00 0.00000000E+00
-7.00000000E+00 0.00000000E+00 0.00000000E+00
-9.00000000E+00 0.00000000E+00 0.00000000E+00
-1.10000000E+01 0.00000000E+00 0.00000000E+00
-1.30000000E+01 0.00000000E+00 0.00000000E+00
-1.50000000E+01 0.00000000E+00 0.00000000E+00
-1.70000000E+01 0.00000000E+00 0.00000000E+00
-1.90000000E+01 0.00000000E+00 0.00000000E+00
-2.10000000E+01 0.00000000E+00 0.00000000E+00
-2.30000000E+01 0.00000000E+00 0.00000000E+00
3.00000000E+00 -1.00000000E+01 0.00000000E+00
1.00000000E+00 -1.00000000E+01 0.00000000E+00
-1.00000000E+00 -1.00000000E+01 0.00000000E+00
-3.00000000E+00 -1.00000000E+01 0.00000000E+00
-5.00000000E+00 -1.00000000E+01 0.00000000E+00
-7.00000000E+00 -1.00000000E+01 0.00000000E+00
-9.00000000E+00 -1.00000000E+01 0.00000000E+00
-1.10000000E+01 -1.00000000E+01 0.00000000E+00
-1.30000000E+01 -1.00000000E+01 0.00000000E+00
-1.50000000E+01 -1.00000000E+01 0.00000000E+00
-1.70000000E+01 -1.00000000E+01 0.00000000E+00
-1.90000000E+01 -1.00000000E+01 0.00000000E+00
-2.10000000E+01 -1.00000000E+01 0.00000000E+00
-2.30000000E+01 -1.00000000E+01 0.00000000E+00
5.00000000E+00 1.80000000E+01 0.00000000E+00
5.00000000E+00 1.60000000E+01 0.00000000E+00
5.00000000E+00 1.40000000E+01 0.00000000E+00
5.00000000E+00 1.20000000E+01 0.00000000E+00
5.00000000E+00 1.00000000E+01 0.00000000E+00
5.00000000E+00 8.00000000E+00 0.00000000E+00
5.00000000E+00 6.00000000E+00 0.00000000E+00
5.00000000E+00 4.00000000E+00 0.00000000E+00
5.00000000E+00 2.00000000E+00 0.00000000E+00
5.00000000E+00 0.00000000E+00 0.00000000E+00
5.00000000E+00 -2.00000000E+00 0.00000000E+00
5.00000000E+00 -4.00000000E+00 0.00000000E+00
5.00000000E+00 -6.00000000E+00 0.00000000E+00
5.00000000E+00 -8.00000000E+00 0.00000000E+00
6.42857122E+00 2.14285717E+01 0.00000000E+00
7.85714293E+00 2.28571434E+01 0.00000000E+00
9.28571415E+00 2.42857151E+01 0.00000000E+00
1.07142859E+01 2.57142849E+01 0.00000000E+00
1.21428576E+01 2.71428566E+01 0.00000000E+00
1.35714283E+01 2.85714283E+01 0.00000000E+00
-2.63336372E+01 -7.76659107E+00 0.00000000E+00
-2.82226868E+01 -6.43824339E+00 0.00000000E+00
-2.81175652E+01 -4.60588837E+00 0.00000000E+00
-2.61591434E+01 -2.10037327E+00 0.00000000E+00
7.94419193E+00 2.81601086E+01 0.00000000E+00
-3.19118237E+00 2.72962761E+01 0.00000000E+00
-5.94074678E+00 -1.56135583E+00 0.00000000E+00
-3.28010941E+00 6.99999666E+00 0.00000000E+00
-7.98214865E+00 -1.62386549E+00 0.00000000E+00
5.94069958E+00 2.82131767E+01 0.00000000E+00
3.96576309E+00 2.81945496E+01 0.00000000E+00
1.96850979E+00 2.81876316E+01 0.00000000E+00
-9.25469864E-03 2.82110806E+01 0.00000000E+00
-3.19306159E+00 2.51208878E+01 0.00000000E+00
-3.24140286E+00 2.30419273E+01 0.00000000E+00
-3.26721168E+00 2.10157700E+01 0.00000000E+00
-3.29015899E+00 1.90030117E+01 0.00000000E+00
-3.29848814E+00 1.69995918E+01 0.00000000E+00
-3.29507470E+00 1.49994574E+01 0.00000000E+00
-3.28950334E+00 1.29997454E+01 0.00000000E+00
-3.28517389E+00 1.09999161E+01 0.00000000E+00
-3.28540468E+00 8.99997520E+00 0.00000000E+00
-3.28817058E+00 4.99999905E+00 0.00000000E+00
-3.32450199E+00 2.98746324E+00 0.00000000E+00
-3.41863847E+00 9.27179158E-01 0.00000000E+00
-9.99433708E+00 -1.64214647E+00 0.00000000E+00
-1.19982300E+01 -1.64728785E+00 0.00000000E+00
-1.39994688E+01 -1.64868796E+00 0.00000000E+00
-1.59998932E+01 -1.64905524E+00 0.00000000E+00
-1.80005169E+01 -1.65485740E+00 0.00000000E+00
-1.99944210E+01 -1.67004955E+00 0.00000000E+00
-2.19607010E+01 -1.70543468E+00 0.00000000E+00
-2.40205898E+01 -8.05579758E+00 0.00000000E+00
-2.39267063E+01 -1.82353294E+00 0.00000000E+00
2.29777122E+00 -8.18962097E+00 0.00000000E+00
1.23059466E-01 -8.18267441E+00 0.00000000E+00
-1.95802188E+00 -8.22096157E+00 0.00000000E+00
-3.98471189E+00 -8.24636459E+00 0.00000000E+00
-5.99523783E+00 -8.26851940E+00 0.00000000E+00
-7.99814987E+00 -8.27763176E+00 0.00000000E+00
-9.99911308E+00 -8.28131580E+00 0.00000000E+00
-1.19996176E+01 -8.28250790E+00 0.00000000E+00
-1.39998579E+01 -8.28286648E+00 0.00000000E+00
-1.59999981E+01 -8.28308964E+00 0.00000000E+00
-1.80003262E+01 -8.28923416E+00 0.00000000E+00
-1.99951019E+01 -8.28801823E+00 0.00000000E+00
-2.19786606E+01 -8.23145771E+00 0.00000000E+00
3.37062716E+00 1.89233551E+01 0.00000000E+00
3.34054041E+00 1.69807224E+01 0.00000000E+00
3.33640957E+00 1.49944878E+01 0.00000000E+00
3.34315801E+00 1.29984617E+01 0.00000000E+00
3.34957194E+00 1.09995937E+01 0.00000000E+00
3.35198402E+00 8.99989700E+00 0.00000000E+00
3.35113668E+00 6.99997568E+00 0.00000000E+00
3.34448671E+00 4.99999523E+00 0.00000000E+00
3.32652950E+00 2.99973011E+00 0.00000000E+00
3.30527616E+00 9.98020113E-01 0.00000000E+00
3.28119373E+00 -1.01071751E+00 0.00000000E+00
3.25898099E+00 -3.01927686E+00 0.00000000E+00
3.24397135E+00 -5.00071239E+00 0.00000000E+00
1.02151985E+01 2.80007057E+01 0.00000000E+00
8.72700691E+00 2.62242470E+01 0.00000000E+00
4.53118944E+00 2.19883575E+01 0.00000000E+00
7.42255640E+00 2.47146339E+01 0.00000000E+00
6.02210903E+00 2.33871956E+01 0.00000000E+00
-2.49141693E+01 -5.84206676E+00 0.00000000E+00
-2.77587090E+01 -3.09401059E+00 0.00000000E+00
-3.74367332E+00 -1.32242095E+00 0.00000000E+00
3.37542582E+00 -6.68383884E+00 0.00000000E+00
-1.68782008E+00 2.83659058E+01 0.00000000E+00
2.93006825E+00 2.63407249E+01 0.00000000E+00
1.37449419E+00 -6.19837618E+00 0.00000000E+00
-6.99313116E+00 -6.56894302E+00 0.00000000E+00
-8.99560261E+00 -6.58624029E+00 0.00000000E+00
-1.09978485E+01 -6.59370756E+00 0.00000000E+00
-1.29991169E+01 -6.59640884E+00 0.00000000E+00
-1.49997482E+01 -6.59741163E+00 0.00000000E+00
-1.70005054E+01 -6.60687542E+00 0.00000000E+00
-1.89910336E+01 -6.61446953E+00 0.00000000E+00
-2.09443874E+01 -6.58081102E+00 0.00000000E+00
-1.56252813E+00 2.00199757E+01 0.00000000E+00
1.69096434E+00 1.59887323E+01 0.00000000E+00
1.69573748E+00 1.39958906E+01 0.00000000E+00
1.70559001E+00 1.19987364E+01 0.00000000E+00
1.71235800E+00 9.99965000E+00 0.00000000E+00
1.70500433E+00 5.99998617E+00 0.00000000E+00
1.67963386E+00 3.99886894E+00 0.00000000E+00
1.64330435E+00 1.99145818E+00 0.00000000E+00
9.05702949E-01 2.64169083E+01 0.00000000E+00
-1.23154819E+00 2.63408546E+01 0.00000000E+00
-1.48619592E+00 2.40970173E+01 0.00000000E+00
-1.52001476E+00 2.20616055E+01 0.00000000E+00
-1.60393560E+00 1.80015297E+01 0.00000000E+00
1.71200323E+00 7.99990702E+00 0.00000000E+00
1.57110965E+00 -2.04215574E+00 0.00000000E+00
-8.83958101E-01 -6.38697195E+00 0.00000000E+00
-2.94760537E+00 -6.42948389E+00 0.00000000E+00
-4.98543882E+00 -6.52348185E+00 0.00000000E+00
-6.97729588E+00 -3.23084092E+00 0.00000000E+00
-8.98907471E+00 -3.26648521E+00 0.00000000E+00
-1.09956169E+01 -3.28038645E+00 0.00000000E+00
-1.29984198E+01 -3.28506351E+00 0.00000000E+00
-1.49995422E+01 -3.28655887E+00 0.00000000E+00
-1.70005360E+01 -3.29590154E+00 0.00000000E+00
-1.89907722E+01 -3.31196833E+00 0.00000000E+00
-2.09331837E+01 -3.33244610E+00 0.00000000E+00
-1.61828923E+00 1.59975128E+01 0.00000000E+00
-1.61388779E+00 1.39984798E+01 0.00000000E+00
-1.60545456E+00 1.19994555E+01 0.00000000E+00
-1.59979153E+00 9.99984074E+00 0.00000000E+00
-1.59754860E+00 7.99995708E+00 0.00000000E+00
-1.60532558E+00 5.99998999E+00 0.00000000E+00
-1.63823593E+00 3.99409580E+00 0.00000000E+00
-1.70293796E+00 1.96242869E+00 0.00000000E+00
1.60747373E+00 -2.72606201E-02 0.00000000E+00
1.55121040E+00 -4.03328276E+00 0.00000000E+00
4.92077351E+00 2.64265118E+01 0.00000000E+00
1.72852290E+00 1.79747887E+01 0.00000000E+00
-2.27829800E+01 -3.40262842E+00 0.00000000E+00
-2.28547916E+01 -6.42256784E+00 0.00000000E+00
3.40620279E+00 2.06201363E+01 0.00000000E+00
6.79960585E+00 2.64659615E+01 0.00000000E+00
4.04114676E+00 2.42806396E+01 0.00000000E+00
-2.45952816E+01 -3.71108937E+00 0.00000000E+00
1.19858971E+01 2.87429981E+01 0.00000000E+00
-2.63854027E+01 -4.19141436E+00 0.00000000E+00
-2.33982754E+01 -4.86368704E+00 0.00000000E+00
2.28591108E+00 2.22277603E+01 0.00000000E+00
5.53736538E-02 1.69928093E+01 0.00000000E+00
-1.80476701E+00 -1.20870896E-01 0.00000000E+00
-4.98795748E+00 -3.15208316E+00 0.00000000E+00
1.10525833E-02 -4.82521629E+00 0.00000000E+00
-4.00782299E+00 -4.75885105E+00 0.00000000E+00
-5.99015188E+00 -4.85574389E+00 0.00000000E+00
[...]
POINT_DATA      889
SCALARS Ux float
LOOKUP_TABLE default
1.00000000E+00
9.19843689E-01
4.62689985E-01
5.89805982E-17
3.62557206E-16
2.55871713E-16
2.94902991E-16
1.77375475E-16
4.11346304E-16
1.37043155E-16
3.45209972E-16
1.05818132E-16
4.62726067E-01
1.00000000E+00
9.98371156E-01
9.93575806E-01
9.85670989E-01
9.74988907E-01
9.62454324E-01
9.49416178E-01
9.37453331E-01
9.27979574E-01
9.21865618E-01
9.17749798E-01
9.11302439E-01
9.00148244E-01
8.83856300E-01
8.62270410E-01
8.35773329E-01
8.05276622E-01
7.71889120E-01
7.36564357E-01
6.99921513E-01
6.62203957E-01
6.23231557E-01
5.82153331E-01
5.36529740E-01
3.88776545E-01
3.43031610E-01
3.01735820E-01
2.62359940E-01
2.23888489E-01
1.85833713E-01
1.47855419E-01
1.09416110E-01
6.91610133E-02
4.59798933E-01
4.50945268E-01
4.36288655E-01
4.16043466E-01
3.90754804E-01
3.61309792E-01
3.28786581E-01
2.94204699E-01
2.58353141E-01
2.21753729E-01
1.84697451E-01
1.47253707E-01
1.09108001E-01
6.90844596E-02
8.77943695E-01
8.27309239E-01
7.83920376E-01
7.43774543E-01
7.05292765E-01
6.67936097E-01
6.31681389E-01
5.96884861E-01
5.64248533E-01
5.34747283E-01
5.09435016E-01
4.89182529E-01
4.74547852E-01
4.65619873E-01
1.00000000E+00
1.00000000E+00
1.00000000E+00
1.00000000E+00
1.00000000E+00
1.00000000E+00
2.08235161E-02
9.68783318E-03
1.20811567E-02
2.19271648E-02
9.81345461E-01
9.17759915E-01
4.09990312E-01
6.43439267E-01
3.63438218E-01
9.69008234E-01
9.55549162E-01
9.42237681E-01
9.31031478E-01
9.09009578E-01
8.95061232E-01
8.75865899E-01
8.51297345E-01
8.22195535E-01
7.89717499E-01
7.54975593E-01
7.18784071E-01
6.81577946E-01
6.04037467E-01
5.62075772E-01
5.15170828E-01
3.21287519E-01
2.81516665E-01
2.42859696E-01
2.04749899E-01
1.66876237E-01
1.29135544E-01
9.14942762E-02
5.33559580E-02
5.45886264E-02
4.59707246E-01
4.47607579E-01
4.29405004E-01
4.05977819E-01
3.77919904E-01
3.46330553E-01
3.12299632E-01
2.76752602E-01
2.40327752E-01
2.03404422E-01
1.66170147E-01
1.28759747E-01
9.10080605E-02
8.94236104E-01
8.47269917E-01
8.03432786E-01
7.62838311E-01
7.23949288E-01
6.86141282E-01
6.49253791E-01
6.13474914E-01
5.79328258E-01
5.47688764E-01
5.19630527E-01
4.96383839E-01
4.78883440E-01
9.92366951E-01
9.89435732E-01
9.62403324E-01
9.86349442E-01
9.79475018E-01
4.60492475E-02
1.19401536E-02
4.61554391E-01
4.68912864E-01
9.24221770E-01
9.46926414E-01
4.63705974E-01
3.65914983E-01
3.31735544E-01
2.95951473E-01
2.59346504E-01
2.22329858E-01
1.85112197E-01
1.48055901E-01
1.11953796E-01
8.70077188E-01
8.19473498E-01
7.80317222E-01
7.41838526E-01
7.03954556E-01
6.29851001E-01
5.94019883E-01
5.59737035E-01
9.32625129E-01
9.20882794E-01
9.08826663E-01
8.92773349E-01
8.41657514E-01
6.66595356E-01
5.01305554E-01
4.46607851E-01
4.24937975E-01
3.97359377E-01
3.78534458E-01
3.38752042E-01
2.99714089E-01
2.61348268E-01
2.23392943E-01
1.85671562E-01
1.48348103E-01
1.12268191E-01
8.09271717E-01
7.74468133E-01
7.38278479E-01
7.01290529E-01
6.63757887E-01
6.25701074E-01
5.86864799E-01
5.46836888E-01
5.28222015E-01
4.80428683E-01
9.62774410E-01
8.58889199E-01
7.89676146E-02
7.79158089E-02
9.29476573E-01
9.76858109E-01
9.55156562E-01
4.98090724E-02
9.96973884E-01
2.77788428E-02
6.98434561E-02
9.26766758E-01
8.31713695E-01
5.06595636E-01
4.17234480E-01
4.64146647E-01
4.20625582E-01
3.88794692E-01
3.53356715E-01
3.16432535E-01
2.79068519E-01
2.41606446E-01
2.04142606E-01
1.66911347E-01
4.79247061E-01
6.09241559E-01
5.72238922E-01
4.50556368E-01
5.04384154E-01
5.36363927E-01
6.46511509E-01
6.83909553E-01
7.21328985E-01
7.58659902E-01
7.95670888E-01
9.12695562E-01
8.93871500E-01
8.65337302E-01
1.30643192E-01
8.95777208E-01
9.69539499E-02
9.72246206E-01
4.74499156E-01
4.44536908E-01
9.32917217E-01
9.21667393E-01
2.35346000E-02
9.79148148E-01
9.75494902E-01
9.72536016E-01
9.17253761E-01
9.15206387E-01
9.14305482E-01
4.10661774E-01
4.22268088E-01
4.18509967E-01
6.95777648E-01
7.14711797E-01
7.04902441E-01
3.86122002E-01
4.02070870E-01
3.76218042E-01
3.66432551E-02
4.40117470E-02
5.78549689E-02
8.33168523E-03
2.30284541E-16
1.09456647E-02
5.58621231E-03
1.52464889E-02
2.63736415E-02
1.91627850E-02
1.77038726E-02
5.28784989E-03
4.75837396E-03
1.16942290E-02
2.36420287E-02
3.41764062E-02
3.36571219E-02
1.67295633E-02
8.53818328E-03
5.98760609E-03
9.81000709E-01
9.88027348E-01
9.83573425E-01
9.77896078E-01
9.71953737E-01
9.51672114E-01
9.48710521E-01
9.44460751E-01
9.62370812E-01
9.65563513E-01
9.59097833E-01
9.59666466E-01
9.54842310E-01
9.50288667E-01
9.52448347E-01
9.46053454E-01
9.36232410E-01
9.39965345E-01
9.34551275E-01
9.20956926E-01
9.19843689E-01
9.20186705E-01
9.19482683E-01
9.23176680E-01
9.20869333E-01
9.14236062E-01
9.09662774E-01
9.02898206E-01
9.04227367E-01
8.97144412E-01
8.86333735E-01
8.89055547E-01
8.79455635E-01
8.64375526E-01
8.68648826E-01
8.56477791E-01
8.37368264E-01
8.43160589E-01
8.28779656E-01
8.06384206E-01
8.13444849E-01
7.97368225E-01
7.72618603E-01
7.80601187E-01
7.63348503E-01
7.37056519E-01
7.45639292E-01
7.27607259E-01
6.71825398E-01
6.52695427E-01
6.62662461E-01
6.23978618E-01
6.33265840E-01
6.13382512E-01
5.83538439E-01
5.93001650E-01
5.71544043E-01
5.39254731E-01
5.49165631E-01
5.23090161E-01
4.46637773E-01
4.55095193E-01
4.56312771E-01
3.41889173E-01
3.53759079E-01
3.32226136E-01
3.01180966E-01
3.11732460E-01
2.91664158E-01
2.62077141E-01
2.72040943E-01
2.52628952E-01
2.23750029E-01
2.33425145E-01
2.14323859E-01
1.85793676E-01
1.95318168E-01
1.76337428E-01
1.48026138E-01
1.57380344E-01
1.38410885E-01
1.10440314E-01
1.19285347E-01
1.00148782E-01
9.97316560E-02
1.18923593E-01
1.10023698E-01
3.72839816E-02
1.90502382E-02
3.46494473E-02
4.62726067E-01
4.62224057E-01
4.63219744E-01
4.59091513E-01
4.64288072E-01
4.48709319E-01
4.54986415E-01
4.54745831E-01
4.61022722E-01
4.64062309E-01
4.67154049E-01
4.32390711E-01
4.41487216E-01
4.39452009E-01
3.84099235E-01
3.97960485E-01
3.92600425E-01
3.55733345E-01
3.62589191E-01
3.71878760E-01
3.39056599E-01
3.49155633E-01
3.04160471E-01
3.21759752E-01
3.14018632E-01
2.68076065E-01
2.86197368E-01
2.77737999E-01
2.31342864E-01
2.49750774E-01
2.40882152E-01
1.94256302E-01
2.12825336E-01
2.03738152E-01
1.57076344E-01
1.75639346E-01
1.66574626E-01
1.20219097E-01
1.38480810E-01
1.29928615E-01
8.79107111E-01
8.62628492E-01
8.78403129E-01
8.52702514E-01
8.36859582E-01
8.49182647E-01
8.12110969E-01
8.24617406E-01
8.32628142E-01
7.91664378E-01
7.99785084E-01
7.52275919E-01
7.71879564E-01
7.60969051E-01
7.13959140E-01
7.33035213E-01
7.22811189E-01
6.58680880E-01
6.77099984E-01
6.67552221E-01
6.21649068E-01
6.31164938E-01
6.39689199E-01
6.03988257E-01
6.11749625E-01
5.69903113E-01
5.86658882E-01
5.76544278E-01
5.27573640E-01
5.41441758E-01
5.33007323E-01
5.03346005E-01
5.14859824E-01
5.07207041E-01
4.84509692E-01
4.93197007E-01
4.86784938E-01
4.67499812E-01
4.69214187E-01
4.72224423E-01
9.90881600E-01
9.87433804E-01
9.84900062E-01
9.95512894E-01
1.00000000E+00
9.96534638E-01
9.95001115E-01
9.98157656E-01
9.95193847E-01
9.92588514E-01
9.98797584E-01
9.98973256E-01
9.97613997E-01
1.00000000E+00
9.99676643E-01
1.09038052E-02
2.74086309E-16
2.79290480E-16
1.88643851E-02
5.22368607E-16
4.32117692E-03
4.44089210E-16
5.17957396E-03
5.74158504E-03
1.26525711E-02
3.59955121E-16
8.76666591E-02
9.46010826E-02
1.04515800E-01
2.65412692E-16
9.83322318E-01
9.80692669E-01
9.68915541E-01
9.06481201E-01
9.39317509E-01
9.37890706E-01
4.29449037E-01
4.16219370E-01
3.64893092E-01
6.42947927E-01
6.03130168E-01
3.21967083E-01
3.53672481E-01
3.69295540E-01
9.55893128E-01
9.93781128E-01
9.94089783E-01
9.43153404E-01
9.90553240E-01
9.92195592E-01
9.83531019E-01
9.32241697E-01
9.29731446E-01
9.17824641E-01
9.23281235E-01
9.26605322E-01
9.27216858E-01
9.26429727E-01
9.26087865E-01
9.31949578E-01
9.26439041E-01
8.92808624E-01
9.15812665E-01
9.14671356E-01
9.08445620E-01
8.73857362E-01
8.83852228E-01
8.72652515E-01
8.82428360E-01
8.49710654E-01
9.18039550E-01
9.30606821E-01
8.21049108E-01
8.44313195E-01
7.88942535E-01
8.62938841E-01
8.92141177E-01
8.70364752E-01
7.54464333E-01
8.15474611E-01
8.38239794E-01
7.18414482E-01
7.09267222E-01
7.73451135E-01
7.94058813E-01
7.82783896E-01
7.00319279E-01
6.90672665E-01
7.33917952E-01
7.53477974E-01
7.43193551E-01
6.81226622E-01
6.76432868E-01
6.95107776E-01
6.85192344E-01
5.60364776E-01
6.22713286E-01
6.40527892E-01
5.09080074E-01
4.95778846E-01
5.88317592E-01
6.05264174E-01
5.96094129E-01
4.01886565E-01
3.98260181E-01
3.84151125E-01
5.56271134E-01
5.71926981E-01
5.63040749E-01
2.81856282E-01
3.20458097E-01
3.37332839E-01
3.29611445E-01
2.43032025E-01
2.85431363E-01
3.03107621E-01
2.94701205E-01
2.04823906E-01
2.49313185E-01
2.67466791E-01
2.58639393E-01
1.66861332E-01
2.12558364E-01
2.30991804E-01
2.21923012E-01
1.28775949E-01
1.75401264E-01
1.94023749E-01
1.84826978E-01
8.97430927E-02
8.02424859E-02
1.37910282E-01
1.56697180E-01
1.47515840E-01
7.26464938E-02
5.88982213E-02
6.36744893E-02
6.75383706E-02
5.23525842E-02
3.34656635E-02
7.99149382E-02
8.95409948E-02
4.43503563E-02
3.77734988E-02
3.61212626E-02
2.64663211E-02
4.56254053E-01
5.19568674E-01
5.17005090E-01
5.32235054E-01
4.63914452E-01
4.70998097E-01
4.72740719E-01
4.44494627E-01
4.26798961E-01
4.37447222E-01
4.36773050E-01
4.26985845E-01
4.08221022E-01
4.11947272E-01
4.22663599E-01
4.04108858E-01
3.76719933E-01
3.82194635E-01
3.93167114E-01
3.76585197E-01
3.59826943E-01
3.71429199E-01
3.45434720E-01
3.24250949E-01
3.42135909E-01
3.35019168E-01
3.11741570E-01
2.87620200E-01
3.05958076E-01
2.97786687E-01
2.76425513E-01
2.50541485E-01
2.69081181E-01
2.60345388E-01
2.40139305E-01
2.13272768E-01
2.31903402E-01
2.22870043E-01
2.03282931E-01
1.76032264E-01
1.94603069E-01
1.85505158E-01
1.66042521E-01
1.39367013E-01
1.57506384E-01
1.48706004E-01
1.28345675E-01
8.30674931E-02
7.41430119E-02
7.16232739E-02
9.13878154E-01
9.23518584E-01
9.48419939E-01
9.69887835E-01
9.50811432E-01
8.13945833E-01
8.19926687E-01
8.02672142E-01
8.51010777E-01
7.92152276E-01
7.84738293E-01
8.04911228E-01
7.66698570E-01
7.56526491E-01
7.48300260E-01
7.63517805E-01
7.29862077E-01
7.19877468E-01
7.11247207E-01
7.24340124E-01
6.55039093E-01
6.44814178E-01
6.36233657E-01
6.86456821E-01
6.17260629E-01
6.27834153E-01
6.49624408E-01
6.06390881E-01
5.98362762E-01
6.14017683E-01
5.79177198E-01
5.66901352E-01
5.60200868E-01
5.80170169E-01
5.38434083E-01
5.53751572E-01
5.43411054E-01
5.48939752E-01
4.70908990E-01
4.80208514E-01
5.21379296E-01
4.88883587E-01
4.99152334E-01
4.89955881E-01
4.98486812E-01
4.73243620E-01
4.71790098E-01
4.77161357E-01
4.80973142E-01
9.90092715E-01
9.88695876E-01
1.00000000E+00
9.95229112E-01
1.00000000E+00
9.82380099E-01
9.87215784E-01
1.00000000E+00
9.74769185E-01
9.70101376E-01
9.67033027E-01
1.00000000E+00
9.64596232E-01
9.73517099E-01
5.00525271E-02
6.64238927E-02
8.42409427E-02
2.93168267E-16
1.95257920E-02
4.85852290E-01
4.61923189E-01
4.38292119E-01
9.24362577E-01
9.23089350E-01
9.18754214E-01
9.40775349E-01
9.32800307E-01
4.90778373E-01
4.90847424E-01
5.03047775E-01
3.87122067E-01
4.01495990E-01
3.46446813E-01
3.27270780E-01
3.08306652E-01
2.89237374E-01
2.70337071E-01
2.51401064E-01
2.32571788E-01
2.13728362E-01
1.94956122E-01
1.76270551E-01
1.57691883E-01
1.39486973E-01
1.13605224E-01
1.21595813E-01
1.04633417E-01
9.53484535E-02
8.82475236E-02
1.01847737E-01
8.60136535E-01
8.46355139E-01
8.31444403E-01
8.54319920E-01
8.74697480E-01
7.77245608E-01
7.40015729E-01
6.92586311E-01
7.02619936E-01
6.73857043E-01
6.65197339E-01
6.48111761E-01
6.57937923E-01
5.90613199E-01
5.53929153E-01
5.41116221E-01
5.26272164E-01
5.32200491E-01
5.09505680E-01
8.93438834E-01
9.01619378E-01
9.01757569E-01
9.21137692E-01
9.15065410E-01
9.13919533E-01
9.09455992E-01
8.94484178E-01
9.43644228E-01
9.43073893E-01
8.56661149E-01
8.25970723E-01
8.15727621E-01
6.82599270E-01
5.10980346E-01
5.13966816E-01
5.24089304E-01
4.47935539E-01
4.54944929E-01
4.58254594E-01
4.37153612E-01
4.14841815E-01
4.14850135E-01
3.93104144E-01
3.71816105E-01
3.58599771E-01
3.50696429E-01
3.30426597E-01
3.19128816E-01
3.10371906E-01
2.90809477E-01
2.80458774E-01
2.71378583E-01
2.52202860E-01
2.42327120E-01
2.33098362E-01
2.14128004E-01
2.04502927E-01
1.95186102E-01
1.76323681E-01
1.66976313E-01
1.57562916E-01
1.38839759E-01
1.30226594E-01
1.20559659E-01
1.02237307E-01
8.50025889E-02
7.99150206E-01
7.82116930E-01
7.64507540E-01
7.46635869E-01
7.28414128E-01
7.10009525E-01
6.91386672E-01
6.72580603E-01
6.53614195E-01
6.34377769E-01
6.14981650E-01
5.95043551E-01
5.74869522E-01
5.53623087E-01
5.22646156E-01
5.05493086E-01
5.48669906E-01
5.65814774E-01
4.80065801E-01
9.66106181E-01
9.58838638E-01
8.39288421E-01
8.96698495E-01
9.16786266E-01
9.10928090E-01
6.09802734E-02
9.42232193E-01
9.57833803E-01
9.66504430E-01
9.75160846E-01
5.99759511E-02
4.91884155E-02
5.77138251E-02
1.00000000E+00
9.96442066E-01
1.60556194E-02
3.70726826E-02
7.45680151E-02
9.04617893E-01
9.28422590E-01
8.26122600E-01
4.86523545E-01
4.90283463E-01
4.89031396E-01
4.60980411E-01
4.65298116E-01
4.77378605E-01
4.59952135E-01
4.69289931E-01
4.51549227E-01
4.05448607E-01
4.19040394E-01
4.36810191E-01
3.65286023E-01
4.47909657E-01
6.01487619E-01
6.19762102E-01
6.38105898E-01
5.83528277E-01
4.36678874E-01
6.56649118E-01
6.75245755E-01
6.93940342E-01
7.12710669E-01
7.31501774E-01
7.50422473E-01
7.69265681E-01
7.88325984E-01
8.07078522E-01
9.10135063E-01
9.02416648E-01
8.92759709E-01
8.81211771E-01
8.80837332E-01
8.67611339E-01
1.21414468E-01
9.79572987E-01
4.31901833E-01
4.31735880E-01
9.27619856E-01
