# vtk DataFile Version 1.0
ECM-CELL DIFFUSION-MECHANICS
ASCII

DATASET UNSTRUCTURED_GRID
POINTS      732 float
1.50000000E+01 3.00000000E+01 0.00000000E+00
-5.00000000E+00 3.00000000E+01 0.00000000E+00
-5.00000000E+00 0.00000000E+00 0.00000000E+00
-2.50000000E+01 0.00000000E+00 0.00000000E+00
-2.69134178E+01 -9.61939812E+00 0.00000000E+00
-2.85355339E+01 -8.53553391E+00 0.00000000E+00
-2.96193981E+01 -6.91341734E+00 0.00000000E+00
-3.00000000E+01 -5.00000000E+00 0.00000000E+00
-2.96193981E+01 -3.08658290E+00 0.00000000E+00
-2.85355339E+01 -1.46446609E+00 0.00000000E+00
-2.69134178E+01 -3.80602330E-01 0.00000000E+00
-2.50000000E+01 -1.00000000E+01 0.00000000E+00
5.00000000E+00 -1.00000000E+01 0.00000000E+00
5.00000000E+00 2.00000000E+01 0.00000000E+00
1.30000000E+01 3.00000000E+01 0.00000000E+00
1.10000000E+01 3.00000000E+01 0.00000000E+00
9.00000000E+00 3.00000000E+01 0.00000000E+00
7.00000000E+00 3.00000000E+01 0.00000000E+00
5.00000000E+00 3.00000000E+01 0.00000000E+00
3.00000000E+00 3.00000000E+01 0.00000000E+00
1.00000000E+00 3.00000000E+01 0.00000000E+00
-1.00000000E+00 3.00000000E+01 0.00000000E+00
-3.00000000E+00 3.00000000E+01 0.00000000E+00
-5.00000000E+00 2.80000000E+01 0.00000000E+00
-5.00000000E+00 2.60000000E+01 0.00000000E+00
-5.00000000E+00 2.40000000E+01 0.00000000E+00
-5.00000000E+00 2.20000000E+01 0.00000000E+00
-5.00000000E+00 2.00000000E+01 0.00000000E+00
-5.00000000E+00 1.80000000E+01 0.00000000E+00
-5.00000000E+00 1.60000000E+01 0.00000000E+00
-5.00000000E+00 1.40000000E+01 0.00000000E+00
-5.00000000E+00 1.20000000E+01 0.00000000E+00
-5.00000000E+00 1.00000000E+01 0.00000000E+00
-5.00000000E+00 8.00000000E+00 0.00000000E+00
-5.00000000E+00 6.00000000E+00 0.00000000E+00
-5.00000000E+00 4.00000000E+00 0.00000000E+00
-5.00000000E+00 2.00000000E+00 0.00000000E+00
-7.00000000E+00 0.00000000E+00 0.00000000E+00
-9.00000000E+00 0.00000000E+00 0.00000000E+00
-1.10000000E+01 0.00000000E+00 0.00000000E+00
-1.30000000E+01 0.00000000E+00 0.00000000E+00
-1.50000000E+01 0.00000000E+00 0.00000000E+00
-1.70000000E+01 0.00000000E+00 0.00000000E+00
-1.90000000E+01 0.00000000E+00 0.00000000E+00
-2.10000000E+01 0.00000000E+00 0.00000000E+00
-2.30000000E+01 0.00000000E+00 0.00000000E+00
3.00000000E+00 -1.00000000E+01 0.00000000E+00
1.00000000E+00 -1.00000000E+01 0.00000000E+00
-1.00000000E+00 -1.00000000E+01 0.00000000E+00
-3.00000000E+00 -1.00000000E+01 0.00000000E+00
-5.00000000E+00 -1.00000000E+01 0.00000000E+00
-7.00000000E+00 -1.00000000E+01 0.00000000E+00
-9.00000000E+00 -1.00000000E+01 0.00000000E+00
-1.10000000E+01 -1.00000000E+01 0.00000000E+00
-1.30000000E+01 -1.00000000E+01 0.00000000E+00
-1.50000000E+01 -1.00000000E+01 0.00000000E+00
-1.70000000E+01 -1.00000000E+01 0.00000000E+00
-1.90000000E+01 -1.00000000E+01 0.00000000E+00
-2.10000000E+01 -1.00000000E+01 0.00000000E+00
-2.30000000E+01 -1.00000000E+01 0.00000000E+00
5.00000000E+00 1.80000000E+01 0.00000000E+00
5.00000000E+00 1.60000000E+01 0.00000000E+00
5.00000000E+00 1.40000000E+01 0.00000000E+00
5.00000000E+00 1.20000000E+01 0.00000000E+00
5.00000000E+00 1.00000000E+01 0.00000000E+00
5.00000000E+00 8.00000000E+00 0.00000000E+00
5.00000000E+00 6.00000000E+00 0.00000000E+00
5.00000000E+00 4.00000000E+00 0.00000000E+00
5.00000000E+00 2.00000000E+00 0.00000000E+00
5.00000000E+00 0.00000000E+00 0.00000000E+00
5.00000000E+00 -2.00000000E+00 0.00000000E+00
5.00000000E+00 -4.00000000E+00 0.00000000E+00
5.00000000E+00 -6.00000000E+00 0.00000000E+00
5.00000000E+00 -8.00000000E+00 0.00000000E+00
6.42857122E+00 2.14285717E+01 0.00000000E+00
7.85714293E+00 2.28571434E+01 0.00000000E+00
9.28571415E+00 2.42857151E+01 0.00000000E+00
1.07142859E+01 2.57142849E+01 0.00000000E+00
1.21428576E+01 2.71428566E+01 0.00000000E+00
1.35714283E+01 2.85714283E+01 0.00000000E+00
-2.55692158E+01 -7.47994947E+00 0.00000000E+00
-2.68123989E+01 -6.65812349E+00 0.00000000E+00
-2.78370075E+01 -5.65078545E+00 0.00000000E+00
-2.49931679E+01 -2.99975061E+00 0.00000000E+00
-6.07402325E+00 -2.51799893E+00 0.00000000E+00
-3.41205382E+00 6.06536293E+00 0.00000000E+00
-7.90601015E+00 -2.16468501E+00 0.00000000E+00
6.93360615E+00 2.85683231E+01 0.00000000E+00
5.03122282E+00 2.85983677E+01 0.00000000E+00
3.07519960E+00 2.83579216E+01 0.00000000E+00
1.02007830E+00 2.82704353E+01 0.00000000E+00
-1.00747931E+00 2.81540108E+01 0.00000000E+00
-2.98253322E+00 2.20530071E+01 0.00000000E+00
-3.14535069E+00 1.99964409E+01 0.00000000E+00
-3.38007402E+00 1.80213890E+01 0.00000000E+00
-3.24730754E+00 1.60810070E+01 0.00000000E+00
-3.22061014E+00 1.40090933E+01 0.00000000E+00
-3.27037716E+00 1.19557343E+01 0.00000000E+00
-3.32515502E+00 9.95609379E+00 0.00000000E+00
-3.37583542E+00 7.99501371E+00 0.00000000E+00
-3.38906217E+00 4.20707273E+00 0.00000000E+00
-3.21241689E+00 2.45526028E+00 0.00000000E+00
-2.81301451E+00 1.00452256E+00 0.00000000E+00
-9.85906696E+00 -1.94350755E+00 0.00000000E+00
-1.18253517E+01 -1.81189597E+00 0.00000000E+00
-1.37737036E+01 -1.72045147E+00 0.00000000E+00
-1.56994905E+01 -1.64893782E+00 0.00000000E+00
-1.76126289E+01 -1.59551537E+00 0.00000000E+00
-1.95252953E+01 -1.56757510E+00 0.00000000E+00
-2.14428196E+01 -1.57937253E+00 0.00000000E+00
-2.40465412E+01 -7.98486996E+00 0.00000000E+00
-2.32975655E+01 -1.60528278E+00 0.00000000E+00
-8.58305335E-01 -8.21509266E+00 0.00000000E+00
-2.85219836E+00 -8.24649334E+00 0.00000000E+00
-4.86234474E+00 -8.28040028E+00 0.00000000E+00
-6.82275486E+00 -8.35858631E+00 0.00000000E+00
-8.72553921E+00 -8.46272755E+00 0.00000000E+00
-1.06668940E+01 -8.49340248E+00 0.00000000E+00
-1.26085234E+01 -8.47250462E+00 0.00000000E+00
-1.45571985E+01 -8.43932819E+00 0.00000000E+00
-1.65147133E+01 -8.41329861E+00 0.00000000E+00
-1.84622021E+01 -8.38815498E+00 0.00000000E+00
-2.03904629E+01 -8.34011364E+00 0.00000000E+00
-2.22757702E+01 -8.22864628E+00 0.00000000E+00
3.32341838E+00 1.79214497E+01 0.00000000E+00
3.49274993E+00 1.58118629E+01 0.00000000E+00
3.45036292E+00 1.38697481E+01 0.00000000E+00
3.40310287E+00 1.19041443E+01 0.00000000E+00
3.36840963E+00 9.92752457E+00 0.00000000E+00
3.33398676E+00 7.94917822E+00 0.00000000E+00
3.27319622E+00 5.98151016E+00 0.00000000E+00
3.14357090E+00 4.00265217E+00 0.00000000E+00
2.93195248E+00 2.00336671E+00 0.00000000E+00
2.85718203E+00 -7.79486522E-02 0.00000000E+00
2.96486330E+00 -2.16540527E+00 0.00000000E+00
3.04931951E+00 -4.18990898E+00 0.00000000E+00
3.07869506E+00 -6.14942598E+00 0.00000000E+00
3.06127834E+00 -8.08621216E+00 0.00000000E+00
8.87478542E+00 2.87956104E+01 0.00000000E+00
1.06500645E+01 2.90019722E+01 0.00000000E+00
9.73117542E+00 2.65182457E+01 0.00000000E+00
4.64431381E+00 2.23340874E+01 0.00000000E+00
8.02427673E+00 2.53785686E+01 0.00000000E+00
6.40424109E+00 2.39808598E+01 0.00000000E+00
-2.30793724E+01 -6.28166199E+00 0.00000000E+00
-2.65148945E+01 -3.90364408E+00 0.00000000E+00
-3.43422222E+00 -1.27146482E+00 0.00000000E+00
1.04067838E+00 2.66475811E+01 0.00000000E+00
1.10761571E+00 -8.16181087E+00 0.00000000E+00
-7.36092031E-01 -6.43063927E+00 0.00000000E+00
-4.75875711E+00 -6.53175259E+00 0.00000000E+00
-6.72676086E+00 -6.65011883E+00 0.00000000E+00
-8.50626945E+00 -6.96918011E+00 0.00000000E+00
-1.03056269E+01 -7.00035810E+00 0.00000000E+00
-1.21337996E+01 -6.91552496E+00 0.00000000E+00
-1.40198870E+01 -6.83708525E+00 0.00000000E+00
-1.59333124E+01 -6.77759314E+00 0.00000000E+00
-1.20785129E+00 1.97240963E+01 0.00000000E+00
-1.32478476E+00 1.64232349E+01 0.00000000E+00
1.96661806E+00 1.56013527E+01 0.00000000E+00
1.83737338E+00 1.38039751E+01 0.00000000E+00
1.66680229E+00 7.95078230E+00 0.00000000E+00
1.58930695E+00 6.05578279E+00 0.00000000E+00
1.41368437E+00 4.18972206E+00 0.00000000E+00
-2.88116503E+00 2.41189423E+01 0.00000000E+00
-1.05743062E+00 2.20182400E+01 0.00000000E+00
-2.06459260E+00 1.80287819E+01 0.00000000E+00
1.76209581E+00 1.18621569E+01 0.00000000E+00
1.71383548E+00 9.90428638E+00 0.00000000E+00
-1.96961384E+01 -6.65574455E+00 0.00000000E+00
1.10382271E+00 -2.44856596E+00 0.00000000E+00
-2.71728683E+00 -6.50229883E+00 0.00000000E+00
-6.94966459E+00 -4.68074226E+00 0.00000000E+00
-8.87774658E+00 -3.94481039E+00 0.00000000E+00
-1.07458334E+01 -3.67898369E+00 0.00000000E+00
-1.26495609E+01 -3.53031301E+00 0.00000000E+00
-1.45555058E+01 -3.42598987E+00 0.00000000E+00
-1.64351330E+01 -3.33984756E+00 0.00000000E+00
-1.82789097E+01 -3.26375914E+00 0.00000000E+00
-1.78273373E+01 -6.72471857E+00 0.00000000E+00
-2.00785789E+01 -3.19971037E+00 0.00000000E+00
-1.49681842E+00 1.40206604E+01 0.00000000E+00
-1.58211720E+00 1.19191847E+01 0.00000000E+00
-1.64738953E+00 9.92495728E+00 0.00000000E+00
-1.70833540E+00 7.99023056E+00 0.00000000E+00
-1.75975442E+00 6.13986826E+00 0.00000000E+00
-1.75903368E+00 4.42714834E+00 0.00000000E+00
-1.57233489E+00 2.89093947E+00 0.00000000E+00
8.35785091E-01 2.16724944E+00 0.00000000E+00
6.82180047E-01 -2.41043478E-01 0.00000000E+00
1.19283760E+00 -4.42227745E+00 0.00000000E+00
5.08529997E+00 2.73792095E+01 0.00000000E+00
3.36510825E+00 2.64843388E+01 0.00000000E+00
2.03854513E+00 1.69918709E+01 0.00000000E+00
-2.18747597E+01 -3.21142745E+00 0.00000000E+00
-2.14750767E+01 -6.53344297E+00 0.00000000E+00
3.87977886E+00 2.02254429E+01 0.00000000E+00
6.80135918E+00 2.67542229E+01 0.00000000E+00
3.63350844E+00 2.38850384E+01 0.00000000E+00
-2.38274765E+01 -3.46659899E+00 0.00000000E+00
1.18041360E+00 -6.30371428E+00 0.00000000E+00
-9.38736618E-01 2.63029137E+01 0.00000000E+00
1.22929611E+01 2.88663254E+01 0.00000000E+00
-2.54329395E+01 -4.97643757E+00 0.00000000E+00
-2.34656639E+01 -4.58569384E+00 0.00000000E+00
2.50105619E+00 2.18994751E+01 0.00000000E+00
1.02533674E+00 1.74530888E+01 0.00000000E+00
-2.03710103E+00 -2.63990819E-01 0.00000000E+00
-2.58995533E+00 -4.80094004E+00 0.00000000E+00
-8.48027420E+00 -5.76261616E+00 0.00000000E+00
-9.76420498E+00 -5.45034361E+00 0.00000000E+00
-1.15105400E+01 -5.29605007E+00 0.00000000E+00
-1.33758335E+01 -5.19502783E+00 0.00000000E+00
-1.39613941E-01 4.48769760E+00 0.00000000E+00
[...]
POINT_DATA      732
SCALARS Ux float
LOOKUP_TABLE default
1.00000000E+00
9.21502312E-01
4.63143427E-01
3.46944695E-18
1.14491749E-16
1.69786060E-16
1.56125113E-16
2.78423118E-16
2.38307638E-16
9.89876583E-17
1.26634814E-16
9.36750677E-17
4.63442084E-01
1.00000000E+00
9.98438482E-01
9.93735739E-01
9.86014452E-01
9.75620549E-01
9.63378919E-01
9.50604834E-01
9.38850208E-01
9.29504118E-01
9.23543961E-01
9.19434464E-01
9.13082841E-01
9.02052702E-01
8.85891410E-01
8.64402739E-01
8.37934216E-01
8.07379448E-01
7.73856702E-01
7.38339570E-01
7.01467364E-01
6.63468521E-01
6.24227034E-01
5.82443617E-01
5.37206608E-01
3.89438136E-01
3.44186714E-01
3.02155467E-01
2.62502126E-01
2.23728907E-01
1.85388357E-01
1.47176451E-01
1.08121394E-01
6.77825938E-02
4.60492412E-01
4.51650816E-01
4.36980209E-01
4.16710958E-01
3.91373322E-01
3.61838450E-01
3.29176182E-01
2.94411604E-01
2.58342852E-01
2.21505639E-01
1.84172497E-01
1.46496812E-01
1.07594329E-01
6.77603941E-02
8.81725732E-01
8.30976214E-01
7.86212632E-01
7.45845789E-01
7.07021779E-01
6.69410165E-01
6.32925690E-01
5.97941110E-01
5.65161491E-01
5.35561818E-01
5.10192308E-01
4.89909960E-01
4.75234560E-01
4.66391830E-01
1.00000000E+00
1.00000000E+00
1.00000000E+00
1.00000000E+00
1.00000000E+00
1.00000000E+00
3.15244973E-02
2.07170750E-02
1.38399629E-02
4.08108547E-02
4.01396805E-01
6.26141367E-01
3.64122663E-01
9.75720982E-01
9.63725435E-01
9.50740185E-01
9.38028349E-01
9.28004307E-01
8.89157102E-01
8.66536567E-01
8.39590724E-01
8.09825922E-01
7.74778054E-01
7.38021283E-01
7.01013532E-01
6.63779679E-01
5.88347115E-01
5.51614625E-01
5.21645254E-01
3.24332701E-01
2.85096106E-01
2.47176839E-01
2.10193014E-01
1.73684116E-01
1.37274272E-01
1.00249071E-01
5.19693481E-02
6.46326319E-02
4.40465374E-01
4.20381628E-01
3.94858713E-01
3.65687760E-01
3.34456103E-01
3.00703052E-01
2.65718139E-01
2.29860162E-01
1.93390192E-01
1.56825577E-01
1.20238140E-01
8.44652960E-02
8.71205149E-01
8.24228633E-01
7.82683340E-01
7.43437601E-01
7.05279540E-01
6.68089669E-01
6.32052822E-01
5.97058242E-01
5.63522683E-01
5.32007035E-01
5.05614302E-01
4.85565383E-01
4.71664543E-01
4.63371120E-01
9.85926701E-01
9.92977186E-01
9.93688681E-01
9.64767418E-01
9.88282871E-01
9.81500764E-01
7.28877432E-02
2.53274608E-02
4.68100398E-01
9.35507205E-01
4.54750631E-01
4.48399133E-01
4.01285722E-01
3.70650573E-01
3.40084578E-01
3.08323753E-01
2.75152524E-01
2.40297901E-01
2.04593326E-01
8.70249768E-01
8.19453545E-01
8.15126440E-01
7.79056544E-01
6.67072071E-01
6.31940185E-01
5.97930140E-01
9.05731845E-01
8.96936980E-01
8.42821852E-01
7.41230382E-01
7.03835570E-01
1.34154178E-01
4.94952446E-01
4.28000119E-01
3.73773285E-01
3.40007297E-01
3.04414489E-01
2.67971831E-01
2.31621149E-01
1.95936471E-01
1.61069925E-01
1.69106512E-01
1.27238296E-01
7.77086520E-01
7.38651501E-01
7.01441073E-01
6.64813493E-01
6.29270762E-01
5.95904531E-01
5.66067891E-01
5.61224528E-01
5.21842046E-01
4.75851176E-01
9.64481455E-01
9.51690450E-01
8.43806898E-01
9.40023706E-02
1.01268737E-01
9.38517521E-01
9.76954262E-01
9.51621769E-01
6.02518694E-02
4.62752830E-01
9.23713940E-01
9.97632254E-01
3.92370288E-02
6.77597879E-02
9.29739268E-01
8.47312675E-01
5.02893431E-01
4.39821051E-01
3.42921567E-01
3.20260114E-01
2.88041143E-01
2.53133101E-01
6.00399985E-01
4.11779907E-01
4.77313885E-01
2.17535566E-01
6.31742343E-01
4.93102900E-01
5.43754995E-01
6.66302634E-01
7.39784045E-01
7.02738724E-01
7.77730210E-01
8.14475293E-01
8.90286907E-01
8.53343401E-01
1.82305529E-01
1.48042927E-01
9.16335562E-01
8.78140005E-01
8.80086197E-02
9.66170619E-01
4.60824118E-01
4.71771115E-01
9.08902686E-01
9.35115467E-01
4.31894524E-01
4.55582352E-01
9.15938268E-01
5.25483477E-02
9.96536267E-01
9.21666666E-01
8.29094382E-03
8.91777133E-03
1.72700441E-02
3.36803368E-02
1.02221373E-02
9.88078386E-01
9.10881456E-01
9.93093187E-01
5.24115975E-01
9.40301426E-01
1.15982738E-01
8.74548650E-01
9.31426648E-01
9.24862268E-01
5.76300252E-01
9.91305739E-01
9.90813613E-01
9.83038358E-01
9.82430754E-01
9.29127001E-01
9.32625146E-01
9.38673886E-01
9.33804625E-01
4.18045495E-01
4.08226536E-01
3.92715711E-01
4.04628323E-01
7.06244471E-01
6.86567617E-01
6.68838319E-01
6.88079501E-01
3.78259268E-01
3.84072967E-01
4.25261070E-01
4.21032507E-01
3.31200030E-02
3.99661323E-02
7.47511505E-02
6.66459842E-02
2.60208521E-16
1.42429020E-02
2.57362458E-02
9.61180607E-03
9.70954354E-02
1.10497089E-01
1.32186633E-01
1.18846829E-01
2.30501382E-16
6.40156582E-03
1.11143103E-02
3.84227053E-03
6.27260181E-02
4.25777538E-02
3.94321709E-02
6.32992867E-02
2.23773666E-02
3.27315311E-02
3.80466485E-02
2.35061156E-02
9.75547603E-01
9.69657792E-01
9.63510435E-01
9.69877433E-01
9.81110935E-01
9.76134762E-01
9.86847441E-01
9.50750019E-01
9.44502943E-01
9.44163856E-01
9.58355520E-01
9.64056622E-01
9.57233072E-01
9.51249188E-01
9.23077572E-01
9.24356100E-01
9.26061295E-01
9.20990885E-01
9.20030385E-01
9.22018407E-01
8.94630357E-01
8.86820419E-01
8.98175121E-01
9.03169966E-01
9.37011343E-01
9.43158519E-01
9.19299154E-01
9.11444045E-01
9.10182799E-01
9.20553662E-01
8.78563809E-01
8.75801114E-01
8.64920056E-01
8.53630254E-01
8.51745177E-01
8.38422206E-01
8.25137187E-01
8.23093776E-01
8.08314447E-01
7.92628152E-01
7.90921860E-01
7.74130871E-01
7.56592402E-01
7.56302279E-01
7.38065789E-01
7.19645984E-01
7.20052146E-01
7.01150177E-01
6.45116134E-01
6.63540803E-01
6.44045954E-01
6.24989138E-01
6.07466179E-01
6.03769647E-01
5.85363049E-01
5.70240681E-01
5.60666481E-01
5.42635153E-01
5.35269160E-01
5.05778985E-01
4.98663897E-01
4.53969139E-01
4.51116352E-01
4.33314206E-01
4.38934197E-01
3.34217657E-01
3.44025582E-01
3.66042089E-01
2.93737186E-01
3.04577315E-01
3.22738740E-01
2.54867701E-01
2.66046519E-01
2.82172341E-01
2.16973684E-01
2.28640187E-01
2.43034172E-01
1.79549358E-01
1.91922064E-01
2.04526561E-01
1.42106913E-01
1.55489432E-01
1.66310278E-01
1.04357797E-01
1.27784339E-01
1.14100903E-01
1.27287665E-01
1.51583005E-01
1.38560837E-01
1.73462244E-02
3.02108002E-02
3.21861251E-02
1.99342957E-02
4.62704678E-01
4.64179712E-01
4.65573702E-01
4.61256841E-01
4.59765093E-01
4.52581955E-01
4.56805880E-01
4.84637910E-01
4.81354434E-01
4.94869416E-01
5.00926554E-01
4.38157058E-01
4.31111199E-01
4.27518272E-01
3.80715271E-01
3.63493205E-01
3.77069762E-01
3.97620014E-01
3.86446311E-01
3.67866507E-01
3.37105877E-01
3.50361858E-01
3.55572244E-01
3.24353229E-01
3.04403118E-01
3.17778551E-01
2.91839356E-01
2.70362261E-01
2.83331769E-01
2.57783556E-01
2.35035040E-01
2.47860450E-01
2.22474390E-01
1.98969802E-01
2.11668177E-01
8.99330494E-01
8.82948305E-01
8.76303314E-01
8.95016412E-01
8.62023089E-01
8.45585628E-01
8.57009271E-01
8.76238083E-01
8.31537934E-01
8.36174026E-01
8.62332735E-01
8.56720067E-01
7.96960494E-01
8.14902730E-01
7.96097379E-01
7.78426692E-01
7.81015936E-01
8.03067876E-01
8.19736799E-01
7.44721529E-01
7.24219390E-01
7.26261016E-01
6.49935238E-01
6.32620089E-01
6.51008114E-01
6.67649774E-01
6.49427751E-01
6.32091859E-01
6.14833524E-01
5.97631363E-01
6.14359225E-01
5.34411986E-01
5.18140439E-01
5.08586061E-01
5.22291827E-01
4.88414534E-01
4.99378943E-01
4.77909825E-01
4.74124856E-01
4.81854175E-01
4.66824222E-01
4.70078939E-01
9.85846738E-01
9.81107203E-01
9.89739256E-01
9.93273516E-01
9.90239298E-01
9.97953242E-01
9.98963615E-01
1.00000000E+00
9.99604338E-01
9.96471721E-01
9.95556812E-01
4.23436251E-03
1.26935706E-02
8.40346706E-03
1.54390389E-16
1.66533454E-16
-1.08420217E-17
9.55040513E-03
1.71651681E-02
6.39650086E-02
8.24684351E-02
8.87637963E-02
2.12819671E-02
1.28369537E-16
3.31657235E-01
3.45835681E-01
9.56954323E-01
9.94167729E-01
1.00000000E+00
9.96869363E-01
9.85384172E-01
9.90526852E-01
1.00000000E+00
9.59647848E-01
9.58344485E-01
9.46543633E-01
9.45387360E-01
9.07631290E-01
8.92307865E-01
9.16816164E-01
9.13911389E-01
9.19322830E-01
8.67779179E-01
8.84649414E-01
8.50525003E-01
8.16983590E-01
8.30694725E-01
8.80758149E-01
8.47358839E-01
8.27311089E-01
8.54233097E-01
7.84801387E-01
8.07835995E-01
7.62832997E-01
7.65753573E-01
6.82514940E-01
6.82611294E-01
7.60031811E-01
7.42407629E-01
7.39183966E-01
7.20122277E-01
7.02065074E-01
7.21264461E-01
5.97723654E-01
6.15204632E-01
5.79989082E-01
5.64758378E-01
5.81212133E-01
4.66358409E-01
4.18336067E-01
4.49241224E-01
5.47268701E-01
5.49893930E-01
2.97462184E-01
3.12003839E-01
2.61973445E-01
2.76503382E-01
2.25645401E-01
2.39998520E-01
1.88768002E-01
2.02893478E-01
1.75146354E-01
1.65385632E-01
1.02460216E-01
1.27251512E-01
1.17594353E-01
9.31981922E-02
4.06716999E-02
4.68443996E-02
6.23718451E-02
7.66817969E-02
8.80493804E-02
4.94910394E-02
5.06055186E-02
4.45033584E-01
4.48313378E-01
4.82949440E-01
4.97531967E-01
4.85899099E-01
4.70129831E-01
4.23649052E-01
4.43836494E-01
4.26626577E-01
4.47046285E-01
4.44897921E-01
4.20922434E-01
3.93330935E-01
3.71908184E-01
4.05988605E-01
3.31714285E-01
3.14138621E-01
3.41433799E-01
3.04230103E-01
2.81502295E-01
2.70619891E-01
2.46662729E-01
2.24554080E-01
2.13760876E-01
1.89111545E-01
1.99914179E-01
1.78484504E-01
1.54563195E-01
1.65142269E-01
1.86856276E-01
1.62967504E-01
1.44123553E-01
1.67369727E-01
8.07619311E-02
7.76311702E-02
6.03177713E-02
9.20743548E-01
9.63482232E-01
9.07892831E-01
9.59344800E-01
1.00000000E+00
9.83416984E-01
7.77347112E-01
7.98576582E-01
7.57999006E-01
7.58771207E-01
6.83191609E-01
6.65536192E-01
6.84518188E-01
6.64228746E-01
7.01161960E-01
6.47114325E-01
6.30487564E-01
6.49012745E-01
6.12644201E-01
5.98162067E-01
6.16051878E-01
5.80962315E-01
5.71304296E-01
5.88345497E-01
5.79486727E-01
5.62723317E-01
5.53030541E-01
5.68502160E-01
5.54837680E-01
4.63208942E-01
4.67245979E-01
4.84616128E-01
4.68398795E-01
4.69031837E-01
4.86809426E-01
4.68620012E-01
4.67880671E-01
4.58105535E-01
1.00000000E+00
9.98339025E-01
9.95240783E-01
9.97045919E-01
9.92960752E-01
9.94849145E-01
1.00000000E+00
9.75338814E-01
9.70755382E-01
8.70186195E-02
5.10811151E-01
3.86513695E-01
9.26263612E-01
9.29223498E-01
8.63691744E-01
4.56273600E-01
4.15345920E-01
3.51685118E-01
3.57152426E-01
3.14271147E-01
3.22275565E-01
2.76504233E-01
2.86181006E-01
2.39390324E-01
2.49774960E-01
2.03055952E-01
8.40984876E-01
8.14244882E-01
7.75792614E-01
7.38252528E-01
8.29416087E-01
7.04623449E-01
6.85385947E-01
6.27605162E-01
5.92056859E-01
5.58938770E-01
9.08179998E-01
9.23911639E-01
9.19881104E-01
9.33066619E-01
9.35509271E-01
7.22458981E-01
1.51603570E-01
9.11179166E-02
6.42959523E-02
5.27668865E-01
5.07446001E-01
3.29890178E-01
3.58035774E-01
2.96119413E-01
2.60498809E-01
2.35344260E-01
1.75707847E-01
1.41147787E-01
2.11039511E-01
1.01792413E-01
1.21643700E-01
5.33427049E-01
5.14053196E-01
5.08214729E-01
5.23046366E-01
5.40862567E-01
5.99211353E-01
9.72192646E-01
9.29542050E-01
9.43850301E-01
9.21869939E-01
1.08767021E-01
9.47104470E-01
9.57086807E-01
9.32830699E-01
9.73257269E-01
4.58423944E-02
1.00000000E+00
9.17628701E-01
9.18179650E-01
9.20930641E-01
5.33854958E-01
6.31878404E-01
6.66716813E-01
7.03310831E-01
7.40534716E-01
9.00481752E-01
9.02146214E-01
8.79405788E-01
1.31928694E-01
9.33655609E-01
1.24900090E-16
4.66427814E-03
9.90530886E-03
5.55111512E-17
9.90772475E-01
