# vtk DataFile Version 1.0
ECM-CELL DIFFUSION-MECHANICS
ASCII

DATASET UNSTRUCTURED_GRID
POINTS      738 float
-5.00000000E+00 0.00000000E+00 3.00000000E+00
-5.00000000E+00 3.00000000E+01 3.00000000E+00
-5.00000000E+00 3.00000000E+01 0.00000000E+00
-5.00000000E+00 0.00000000E+00 0.00000000E+00
1.50000000E+01 3.00000000E+01 3.00000000E+00
1.50000000E+01 3.00000000E+01 0.00000000E+00
-2.50000000E+01 -1.00000000E+01 3.00000000E+00
-2.50000000E+01 0.00000000E+00 3.00000000E+00
-2.50000000E+01 0.00000000E+00 0.00000000E+00
-2.50000000E+01 -1.00000000E+01 0.00000000E+00
5.00000000E+00 2.00000000E+01 3.00000000E+00
5.00000000E+00 2.00000000E+01 0.00000000E+00
5.00000000E+00 -1.00000000E+01 0.00000000E+00
5.00000000E+00 -1.00000000E+01 3.00000000E+00
-5.00000000E+00 2.00000000E+00 3.00000000E+00
-5.00000000E+00 4.00000000E+00 3.00000000E+00
-5.00000000E+00 6.00000000E+00 3.00000000E+00
-5.00000000E+00 8.00000000E+00 3.00000000E+00
-5.00000000E+00 1.00000000E+01 3.00000000E+00
-5.00000000E+00 1.20000000E+01 3.00000000E+00
-5.00000000E+00 1.40000000E+01 3.00000000E+00
-5.00000000E+00 1.60000000E+01 3.00000000E+00
-5.00000000E+00 1.80000000E+01 3.00000000E+00
-5.00000000E+00 2.00000000E+01 3.00000000E+00
-5.00000000E+00 2.20000000E+01 3.00000000E+00
-5.00000000E+00 2.40000000E+01 3.00000000E+00
-5.00000000E+00 2.60000000E+01 3.00000000E+00
-5.00000000E+00 2.80000000E+01 3.00000000E+00
-5.00000000E+00 3.00000000E+01 1.50000000E+00
-5.00000000E+00 2.80000000E+01 0.00000000E+00
-5.00000000E+00 2.60000000E+01 0.00000000E+00
-5.00000000E+00 2.40000000E+01 0.00000000E+00
-5.00000000E+00 2.20000000E+01 0.00000000E+00
-5.00000000E+00 2.00000000E+01 0.00000000E+00
-5.00000000E+00 1.80000000E+01 0.00000000E+00
-5.00000000E+00 1.60000000E+01 0.00000000E+00
-5.00000000E+00 1.40000000E+01 0.00000000E+00
-5.00000000E+00 1.20000000E+01 0.00000000E+00
-5.00000000E+00 1.00000000E+01 0.00000000E+00
-5.00000000E+00 8.00000000E+00 0.00000000E+00
-5.00000000E+00 6.00000000E+00 0.00000000E+00
-5.00000000E+00 4.00000000E+00 0.00000000E+00
-5.00000000E+00 2.00000000E+00 0.00000000E+00
-5.00000000E+00 0.00000000E+00 1.50000000E+00
-3.00000000E+00 3.00000000E+01 3.00000000E+00
-1.00000000E+00 3.00000000E+01 3.00000000E+00
1.00000000E+00 3.00000000E+01 3.00000000E+00
3.00000000E+00 3.00000000E+01 3.00000000E+00
5.00000000E+00 3.00000000E+01 3.00000000E+00
7.00000000E+00 3.00000000E+01 3.00000000E+00
9.00000000E+00 3.00000000E+01 3.00000000E+00
1.10000000E+01 3.00000000E+01 3.00000000E+00
1.30000000E+01 3.00000000E+01 3.00000000E+00
1.50000000E+01 3.00000000E+01 1.50000000E+00
1.30000000E+01 3.00000000E+01 0.00000000E+00
1.10000000E+01 3.00000000E+01 0.00000000E+00
9.00000000E+00 3.00000000E+01 0.00000000E+00
7.00000000E+00 3.00000000E+01 0.00000000E+00
5.00000000E+00 3.00000000E+01 0.00000000E+00
3.00000000E+00 3.00000000E+01 0.00000000E+00
1.00000000E+00 3.00000000E+01 0.00000000E+00
-1.00000000E+00 3.00000000E+01 0.00000000E+00
-3.00000000E+00 3.00000000E+01 0.00000000E+00
-2.69134178E+01 -9.61939812E+00 3.00000000E+00
-2.85355339E+01 -8.53553391E+00 3.00000000E+00
-2.96193981E+01 -6.91341734E+00 3.00000000E+00
-3.00000000E+01 -5.00000000E+00 3.00000000E+00
-2.96193981E+01 -3.08658290E+00 3.00000000E+00
-2.85355339E+01 -1.46446609E+00 3.00000000E+00
-2.69134178E+01 -3.80602330E-01 3.00000000E+00
-2.50000000E+01 0.00000000E+00 1.50000000E+00
-2.69134178E+01 -3.80602330E-01 0.00000000E+00
-2.85355339E+01 -1.46446609E+00 0.00000000E+00
-2.96193981E+01 -3.08658290E+00 0.00000000E+00
-3.00000000E+01 -5.00000000E+00 0.00000000E+00
-2.96193981E+01 -6.91341734E+00 0.00000000E+00
-2.85355339E+01 -8.53553391E+00 0.00000000E+00
-2.69134178E+01 -9.61939812E+00 0.00000000E+00
-2.50000000E+01 -1.00000000E+01 1.50000000E+00
-2.30000000E+01 0.00000000E+00 3.00000000E+00
-2.10000000E+01 0.00000000E+00 3.00000000E+00
-1.90000000E+01 0.00000000E+00 3.00000000E+00
-1.70000000E+01 0.00000000E+00 3.00000000E+00
-1.50000000E+01 0.00000000E+00 3.00000000E+00
-1.30000000E+01 0.00000000E+00 3.00000000E+00
-1.10000000E+01 0.00000000E+00 3.00000000E+00
-9.00000000E+00 0.00000000E+00 3.00000000E+00
-7.00000000E+00 0.00000000E+00 3.00000000E+00
-7.00000000E+00 0.00000000E+00 0.00000000E+00
-9.00000000E+00 0.00000000E+00 0.00000000E+00
-1.10000000E+01 0.00000000E+00 0.00000000E+00
-1.30000000E+01 0.00000000E+00 0.00000000E+00
-1.50000000E+01 0.00000000E+00 0.00000000E+00
-1.70000000E+01 0.00000000E+00 0.00000000E+00
-1.90000000E+01 0.00000000E+00 0.00000000E+00
-2.10000000E+01 0.00000000E+00 0.00000000E+00
-2.30000000E+01 0.00000000E+00 0.00000000E+00
1.35714283E+01 2.85714283E+01 3.00000000E+00
1.21428576E+01 2.71428566E+01 3.00000000E+00
1.07142859E+01 2.57142849E+01 3.00000000E+00
9.28571415E+00 2.42857151E+01 3.00000000E+00
7.85714293E+00 2.28571434E+01 3.00000000E+00
6.42857122E+00 2.14285717E+01 3.00000000E+00
5.00000000E+00 2.00000000E+01 1.50000000E+00
6.42857122E+00 2.14285717E+01 0.00000000E+00
7.85714293E+00 2.28571434E+01 0.00000000E+00
9.28571415E+00 2.42857151E+01 0.00000000E+00
1.07142859E+01 2.57142849E+01 0.00000000E+00
1.21428576E+01 2.71428566E+01 0.00000000E+00
1.35714283E+01 2.85714283E+01 0.00000000E+00
5.00000000E+00 1.80000000E+01 0.00000000E+00
5.00000000E+00 1.60000000E+01 0.00000000E+00
5.00000000E+00 1.40000000E+01 0.00000000E+00
5.00000000E+00 1.20000000E+01 0.00000000E+00
5.00000000E+00 1.00000000E+01 0.00000000E+00
5.00000000E+00 8.00000000E+00 0.00000000E+00
5.00000000E+00 6.00000000E+00 0.00000000E+00
5.00000000E+00 4.00000000E+00 0.00000000E+00
5.00000000E+00 2.00000000E+00 0.00000000E+00
5.00000000E+00 0.00000000E+00 0.00000000E+00
5.00000000E+00 -2.00000000E+00 0.00000000E+00
5.00000000E+00 -4.00000000E+00 0.00000000E+00
5.00000000E+00 -6.00000000E+00 0.00000000E+00
5.00000000E+00 -8.00000000E+00 0.00000000E+00
3.00000000E+00 -1.00000000E+01 0.00000000E+00
1.00000000E+00 -1.00000000E+01 0.00000000E+00
-1.00000000E+00 -1.00000000E+01 0.00000000E+00
-3.00000000E+00 -1.00000000E+01 0.00000000E+00
-5.00000000E+00 -1.00000000E+01 0.00000000E+00
-7.00000000E+00 -1.00000000E+01 0.00000000E+00
-9.00000000E+00 -1.00000000E+01 0.00000000E+00
-1.10000000E+01 -1.00000000E+01 0.00000000E+00
-1.30000000E+01 -1.00000000E+01 0.00000000E+00
-1.50000000E+01 -1.00000000E+01 0.00000000E+00
-1.70000000E+01 -1.00000000E+01 0.00000000E+00
-1.90000000E+01 -1.00000000E+01 0.00000000E+00
-2.10000000E+01 -1.00000000E+01 0.00000000E+00
-2.30000000E+01 -1.00000000E+01 0.00000000E+00
3.00000000E+00 -1.00000000E+01 3.00000000E+00
1.00000000E+00 -1.00000000E+01 3.00000000E+00
-1.00000000E+00 -1.00000000E+01 3.00000000E+00
-3.00000000E+00 -1.00000000E+01 3.00000000E+00
-5.00000000E+00 -1.00000000E+01 3.00000000E+00
-7.00000000E+00 -1.00000000E+01 3.00000000E+00
-9.00000000E+00 -1.00000000E+01 3.00000000E+00
-1.10000000E+01 -1.00000000E+01 3.00000000E+00
-1.30000000E+01 -1.00000000E+01 3.00000000E+00
-1.50000000E+01 -1.00000000E+01 3.00000000E+00
-1.70000000E+01 -1.00000000E+01 3.00000000E+00
-1.90000000E+01 -1.00000000E+01 3.00000000E+00
-2.10000000E+01 -1.00000000E+01 3.00000000E+00
-2.30000000E+01 -1.00000000E+01 3.00000000E+00
5.00000000E+00 -1.00000000E+01 1.50000000E+00
5.00000000E+00 -8.00000000E+00 3.00000000E+00
5.00000000E+00 -6.00000000E+00 3.00000000E+00
5.00000000E+00 -4.00000000E+00 3.00000000E+00
5.00000000E+00 -2.00000000E+00 3.00000000E+00
5.00000000E+00 0.00000000E+00 3.00000000E+00
5.00000000E+00 2.00000000E+00 3.00000000E+00
5.00000000E+00 4.00000000E+00 3.00000000E+00
5.00000000E+00 6.00000000E+00 3.00000000E+00
5.00000000E+00 8.00000000E+00 3.00000000E+00
5.00000000E+00 1.00000000E+01 3.00000000E+00
5.00000000E+00 1.20000000E+01 3.00000000E+00
5.00000000E+00 1.40000000E+01 3.00000000E+00
5.00000000E+00 1.60000000E+01 3.00000000E+00
5.00000000E+00 1.80000000E+01 3.00000000E+00
-5.00000000E+00 2.00000000E+00 1.50000000E+00
-5.00000000E+00 4.00000000E+00 1.50000000E+00
-5.00000000E+00 6.00000000E+00 1.50000000E+00
-5.00000000E+00 8.00000000E+00 1.50000000E+00
-5.00000000E+00 1.00000000E+01 1.50000000E+00
-5.00000000E+00 1.20000000E+01 1.50000000E+00
-5.00000000E+00 1.40000000E+01 1.50000000E+00
-5.00000000E+00 1.60000000E+01 1.50000000E+00
-5.00000000E+00 1.80000000E+01 1.50000000E+00
-5.00000000E+00 2.00000000E+01 1.50000000E+00
-5.00000000E+00 2.20000000E+01 1.50000000E+00
-5.00000000E+00 2.40000000E+01 1.50000000E+00
-5.00000000E+00 2.60000000E+01 1.50000000E+00
-5.00000000E+00 2.80000000E+01 1.50000000E+00
-3.00000000E+00 3.00000000E+01 1.50000000E+00
-1.00000000E+00 3.00000000E+01 1.50000000E+00
1.00000000E+00 3.00000000E+01 1.50000000E+00
3.00000000E+00 3.00000000E+01 1.50000000E+00
5.00000000E+00 3.00000000E+01 1.50000000E+00
7.00000000E+00 3.00000000E+01 1.50000000E+00
9.00000000E+00 3.00000000E+01 1.50000000E+00
1.10000000E+01 3.00000000E+01 1.50000000E+00
1.30000000E+01 3.00000000E+01 1.50000000E+00
-2.69134178E+01 -9.61939716E+00 1.50000000E+00
-2.85355339E+01 -8.53553391E+00 1.50000000E+00
-2.96193981E+01 -6.91341734E+00 1.50000000E+00
-3.00000000E+01 -5.00000000E+00 1.50000000E+00
-2.96193981E+01 -3.08658314E+00 1.50000000E+00
-2.85355339E+01 -1.46446609E+00 1.50000000E+00
-2.69134178E+01 -3.80602568E-01 1.50000000E+00
-2.30000000E+01 0.00000000E+00 1.50000000E+00
-2.10000000E+01 0.00000000E+00 1.50000000E+00
-1.90000000E+01 0.00000000E+00 1.50000000E+00
-1.70000000E+01 0.00000000E+00 1.50000000E+00
-1.50000000E+01 0.00000000E+00 1.50000000E+00
-1.30000000E+01 0.00000000E+00 1.50000000E+00
-1.10000000E+01 0.00000000E+00 1.50000000E+00
-9.00000000E+00 0.00000000E+00 1.50000000E+00
-7.00000000E+00 0.00000000E+00 1.50000000E+00
1.35714283E+01 2.85714283E+01 1.50000000E+00
1.21428566E+01 2.71428566E+01 1.50000000E+00
1.07142849E+01 2.57142849E+01 1.50000000E+00
9.28571510E+00 2.42857151E+01 1.50000000E+00
7.85714340E+00 2.28571434E+01 1.50000000E+00
6.42857170E+00 2.14285717E+01 1.50000000E+00
-2.63057060E+01 -7.90332747E+00 0.00000000E+00
-2.81559620E+01 -6.51537371E+00 0.00000000E+00
-2.78773251E+01 -4.67539501E+00 0.00000000E+00
[...]
POINT_DATA      738
SCALARS Ux float
LOOKUP_TABLE default
4.68037539E-01
9.28045049E-01
9.28887363E-01
4.65514783E-01
1.00000000E+00
1.00000000E+00
-2.60208521E-17
-3.12250226E-17
-7.97972799E-17
-1.21430643E-17
1.00000000E+00
1.00000000E+00
4.66482818E-01
4.67506523E-01
5.36856906E-01
5.85949343E-01
6.29008833E-01
6.69496328E-01
7.08532438E-01
7.46314042E-01
7.82521130E-01
8.16230280E-01
8.47039275E-01
8.73569494E-01
8.94362476E-01
9.10123337E-01
9.20670849E-01
9.26212837E-01
9.28470182E-01
9.26624354E-01
9.20384047E-01
9.09946536E-01
8.94316904E-01
8.73464849E-01
8.47208346E-01
8.16302658E-01
7.82258494E-01
7.46128304E-01
7.08421259E-01
6.69551193E-01
6.29196012E-01
5.86489906E-01
5.37967948E-01
4.67332671E-01
9.30363305E-01
9.36114664E-01
9.44671608E-01
9.55627879E-01
9.67310460E-01
9.78349957E-01
9.87633282E-01
9.94490141E-01
9.98773080E-01
1.00000000E+00
9.98554192E-01
9.94474594E-01
9.87564915E-01
9.78280753E-01
9.67209928E-01
9.55529505E-01
9.44543343E-01
9.36056999E-01
9.30163028E-01
-5.38306379E-17
-3.18755439E-17
1.30104261E-17
-2.68882139E-17
6.76542156E-17
-3.07913417E-17
-3.45860493E-17
-5.89805982E-17
4.38017678E-17
-2.45029691E-17
-4.35849273E-17
-7.19910243E-17
3.38271078E-17
-1.95156391E-18
-7.97972799E-17
-9.02056208E-17
5.87977071E-02
1.04462271E-01
1.44707581E-01
1.84057364E-01
2.23463008E-01
2.63233892E-01
3.03981640E-01
3.47137618E-01
3.95177084E-01
3.96702614E-01
3.47720882E-01
3.04498826E-01
2.63304474E-01
2.23457537E-01
1.84109099E-01
1.44802305E-01
1.05253565E-01
6.35986323E-02
1.00000000E+00
1.00000000E+00
1.00000000E+00
1.00000000E+00
1.00000000E+00
1.00000000E+00
1.00000000E+00
1.00000000E+00
1.00000000E+00
1.00000000E+00
1.00000000E+00
1.00000000E+00
1.00000000E+00
8.93859458E-01
8.40990831E-01
7.96053577E-01
7.54380049E-01
7.14543857E-01
6.75977391E-01
6.38644902E-01
6.02943535E-01
5.69599871E-01
5.39711545E-01
5.14026716E-01
4.94097184E-01
4.78862591E-01
4.70308225E-01
4.63583848E-01
4.54966285E-01
4.40151598E-01
4.19798174E-01
3.94438570E-01
3.64474660E-01
3.31225428E-01
2.95719767E-01
2.58805114E-01
2.21050509E-01
1.82765293E-01
1.43944622E-01
1.03980511E-01
6.02120414E-02
4.64133040E-01
4.54744838E-01
4.40441048E-01
4.19733786E-01
3.94347766E-01
3.64397968E-01
3.31159342E-01
2.95671530E-01
2.58775876E-01
2.21041543E-01
1.82793190E-01
1.44073956E-01
1.04466909E-01
6.16076185E-02
4.66930691E-01
4.69474272E-01
4.78569530E-01
4.93602227E-01
5.13829650E-01
5.39643057E-01
5.69504494E-01
6.02873553E-01
6.38602819E-01
6.75965661E-01
7.14571140E-01
7.54486464E-01
7.96384927E-01
8.42225990E-01
8.98499103E-01
5.35617870E-01
5.85468601E-01
6.28817372E-01
6.69388269E-01
7.08440724E-01
7.46172992E-01
7.82319754E-01
8.16384928E-01
8.46989164E-01
8.73093447E-01
8.94154213E-01
9.10236978E-01
9.20445411E-01
9.26586754E-01
9.30209257E-01
9.36243659E-01
9.44752292E-01
9.55655917E-01
9.67221864E-01
9.78189512E-01
9.87463459E-01
9.94305277E-01
9.98554662E-01
-1.30104261E-17
6.20163643E-17
-7.37257477E-17
-2.64545330E-17
6.00648004E-17
-5.94142791E-17
-3.20923843E-17
6.11425817E-02
1.04481939E-01
1.44716582E-01
1.84084988E-01
2.23453403E-01
2.63329329E-01
3.04333277E-01
3.48195229E-01
3.97931423E-01
1.00000000E+00
1.00000000E+00
1.00000000E+00
1.00000000E+00
1.00000000E+00
1.00000000E+00
1.66735830E-02
9.25295171E-03
1.29687260E-02
1.52139730E-02
2.16241019E-02
9.11441211E-01
8.61976030E-01
4.64125617E-01
3.48923396E-01
9.97232896E-01
9.93127219E-01
9.83744624E-01
9.73077498E-01
9.61157262E-01
9.49282631E-01
9.38726064E-01
8.16622411E-01
7.74271866E-01
7.33900604E-01
6.94790293E-01
6.56761207E-01
6.20011077E-01
5.85119506E-01
5.20543463E-01
5.52794864E-01
5.24146593E-01
5.00531203E-01
4.83062862E-01
4.51839542E-01
4.33273015E-01
4.09651816E-01
3.81068410E-01
3.14147571E-01
2.77665036E-01
2.40171510E-01
2.02095246E-01
1.63648980E-01
1.24897941E-01
8.54801250E-02
4.87914316E-02
4.48388761E-02
4.15462465E-01
3.67968204E-01
3.24131101E-01
2.83088316E-01
2.43068737E-01
2.03619795E-01
1.64497377E-01
1.25627243E-01
8.69673805E-02
9.25650758E-01
9.17979605E-01
9.05155443E-01
8.86831077E-01
8.62562566E-01
8.33509060E-01
8.00745954E-01
7.65219649E-01
7.27962188E-01
6.89557016E-01
6.50086785E-01
6.09268202E-01
5.66582690E-01
9.90942857E-01
9.69245304E-01
9.88314326E-01
9.82508582E-01
3.98681565E-02
4.05584064E-02
3.07210720E-02
4.72697276E-01
4.90035278E-01
9.29388344E-01
3.69001508E-01
9.40293406E-01
9.67794759E-01
9.80053508E-01
5.64979721E-01
5.05212319E-01
4.01000326E-01
3.41779888E-01
3.01601073E-01
2.62040847E-01
2.22853716E-01
1.83921337E-01
1.45373412E-01
1.07550220E-01
9.29115818E-01
8.53622513E-01
8.20965126E-01
7.85347174E-01
7.48189532E-01
7.10037648E-01
6.71271199E-01
6.31952504E-01
5.92190801E-01
9.53450971E-01
5.33159534E-01
4.83498140E-01
4.67569136E-01
4.49993295E-01
4.28205210E-01
3.82526227E-01
3.34122614E-01
2.97442003E-01
2.59795821E-01
2.21650207E-01
1.83264696E-01
1.44978364E-01
1.07186989E-01
9.18797502E-01
9.03710169E-01
8.81672875E-01
8.32839114E-01
7.92149888E-01
7.52259398E-01
7.13073300E-01
6.74500929E-01
6.36651668E-01
5.99949176E-01
5.52813459E-01
8.73701844E-01
7.09931129E-02
7.16840883E-02
9.45380576E-01
9.61677305E-01
5.71548939E-02
9.09923032E-01
2.23065255E-02
8.44678208E-01
5.16674167E-01
4.20742475E-01
3.92479329E-01
4.79213482E-01
3.56450400E-01
3.18611210E-01
2.80183219E-01
2.41577879E-01
2.02940434E-01
1.64485997E-01
4.24893035E-01
4.50288680E-01
5.09967564E-01
5.42596228E-01
5.78041529E-01
6.15380916E-01
6.53661194E-01
6.92236809E-01
7.30872377E-01
9.05928373E-01
9.22968338E-01
7.69412773E-01
9.30530807E-01
8.07614403E-01
8.78421600E-01
9.41265849E-01
1.26623119E-01
9.01388860E-02
9.37357452E-01
4.54704559E-01
4.83628429E-01
4.66338316E-01
4.53011708E-01
9.31918271E-01
9.76398248E-01
4.64080589E-01
4.54972782E-01
4.40481307E-01
4.19661192E-01
3.94074676E-01
3.64213101E-01
3.31037457E-01
2.95594579E-01
2.58725999E-01
2.20996944E-01
1.82714935E-01
1.43848016E-01
1.03682504E-01
5.92291373E-02
1.01533626E-02
2.03230465E-02
1.42686835E-02
2.24334236E-02
2.83045928E-01
4.17908551E-01
8.62430717E-01
9.68646409E-01
4.76835476E-02
4.78087616E-02
8.61454216E-02
1.25360212E-01
1.64489290E-01
2.03632462E-01
2.43056138E-01
3.24193899E-01
3.68149681E-01
4.62321082E-01
4.50946129E-01
4.32671801E-01
4.09379180E-01
3.81010111E-01
3.48945958E-01
3.14183319E-01
2.77695268E-01
2.40191763E-01
2.02113327E-01
1.63686951E-01
1.24915400E-01
8.60559628E-02
9.15485903E-01
8.16769166E-01
7.74315284E-01
7.33907239E-01
6.94783607E-01
6.56744449E-01
6.19984462E-01
5.85076172E-01
5.52752644E-01
5.24329950E-01
5.00932633E-01
4.82776114E-01
9.97286389E-01
9.93286640E-01
9.90699978E-01
9.86727033E-01
9.80104342E-01
9.30436197E-01
9.38479131E-01
9.49419811E-01
9.61620404E-01
9.73678160E-01
9.83935143E-01
5.14270857E-01
5.65458563E-01
6.09086317E-01
6.50053509E-01
6.89540656E-01
7.27954117E-01
7.65205456E-01
8.00707362E-01
8.33482952E-01
8.62590527E-01
8.86711319E-01
9.05227384E-01
9.17938204E-01
4.31782722E-02
3.49028237E-02
8.73416328E-03
4.68141252E-01
4.65542098E-01
9.24431995E-01
5.05254407E-01
2.21696164E-01
3.34218910E-01
4.83797918E-01
3.69012881E-01
2.97541785E-01
2.59861647E-01
1.83299727E-01
1.44897771E-01
1.07417308E-01
9.18715127E-01
9.40509626E-01
9.81076652E-01
5.50755721E-01
5.91731022E-01
6.31873999E-01
6.71263654E-01
7.10036655E-01
7.48189851E-01
7.85335255E-01
8.20933035E-01
8.53442267E-01
8.81241122E-01
4.49784439E-01
4.28143112E-01
4.00816982E-01
3.82933333E-01
3.42001086E-01
3.01725676E-01
2.62089345E-01
2.22885569E-01
1.83938025E-01
1.45217617E-01
1.07569062E-01
5.64712865E-01
5.32824369E-01
4.67164795E-01
9.53698695E-01
9.03616200E-01
9.70612992E-01
5.99824283E-01
6.36614377E-01
6.74490955E-01
7.13078016E-01
7.52289238E-01
7.92193550E-01
8.32783918E-01
9.28712840E-01
8.73822963E-01
7.30136409E-02
7.24321417E-02
9.46951775E-01
5.97362995E-02
9.37360004E-01
8.44455483E-01
4.21232560E-01
5.10617311E-01
4.82516169E-01
4.24694384E-01
3.92427513E-01
3.56589317E-01
3.18756719E-01
5.40987504E-01
5.77310335E-01
6.15142485E-01
6.53603810E-01
6.92231106E-01
7.30891783E-01
7.69442950E-01
8.07572021E-01
5.08307499E-01
4.53837482E-01
2.80281107E-01
2.41636781E-01
2.02972934E-01
9.05692545E-01
1.64413161E-01
9.23237902E-01
8.78026269E-01
9.41136247E-01
9.58950414E-01
1.26680494E-01
9.10446959E-01
9.11420144E-02
4.77742849E-01
4.48636174E-01
4.67593864E-01
9.30513469E-01
4.62843279E-02
2.32889680E-02
4.71921908E-01
8.99679629E-01
8.42795718E-01
7.96616474E-01
7.54609210E-01
7.14666747E-01
6.76074343E-01
6.38744840E-01
6.03078233E-01
5.69818150E-01
5.39727585E-01
5.13457559E-01
4.93879213E-01
4.78592269E-01
4.69852634E-01
4.70540255E-01
4.94176250E-01
4.71969439E-01
4.48651798E-01
4.64761578E-01
4.37506127E-01
5.26994251E-01
5.43319088E-01
5.05214539E-01
5.15107859E-01
4.63009228E-01
4.66516566E-01
9.26647436E-01
9.19972195E-01
9.25436315E-01
9.93390089E-01
9.81019533E-01
4.64266698E-01
4.51157429E-01
4.74980311E-01
4.13239792E-01
4.18239511E-01
4.08873052E-01
3.95782140E-01
3.85316882E-01
9.90540971E-01
4.93408550E-01
4.79455799E-01
9.17790167E-01
9.50393666E-01
9.26417107E-01
9.32615206E-01
8.95390037E-01
4.33164811E-01
4.41162383E-01
9.91256663E-01
9.80308176E-01
9.70794593E-01
1.38384716E-02
1.20320051E-02
3.52819599E-02
2.48313877E-02
8.03706123E-03
9.05654717E-01
8.94738955E-01
9.11544754E-01
9.85019862E-01
1.74862942E-02
6.63973437E-02
4.38869312E-02
1.01823718E-02
2.02669570E-02
7.88579508E-01
2.08348777E-02
4.58845172E-01
9.47844960E-01
6.06430097E-03
1.71235152E-02
1.52464082E-02
9.24221906E-01
9.34304598E-01
9.35549121E-01
9.13494276E-01
6.02149867E-01
6.18098652E-01
5.82149846E-01
5.68609279E-01
7.94943809E-01
7.72082144E-01
3.65515271E-01
4.77447596E-01
9.28647857E-01
9.31969139E-01
5.11847108E-01
4.41253004E-01
4.97126497E-01
6.38107536E-01
6.55469081E-01
6.34447173E-01
9.66116674E-01
1.26323105E-01
1.08681342E-01
1.45457109E-01
1.64497040E-01
1.38190214E-01
2.78730231E-01
2.59131588E-01
2.40819786E-01
2.96217610E-01
7.66953772E-01
7.29214083E-01
7.38007203E-01
3.74465625E-02
9.43579916E-01
9.55250986E-01
9.61050437E-01
8.17620101E-01
8.03395195E-01
5.96392725E-01
5.72154668E-01
5.54805724E-01
6.12075934E-01
4.75040382E-01
1.26117158E-01
8.95360398E-02
1.05804877E-01
6.90727008E-01
6.69971847E-01
7.02140183E-01
6.51679410E-01
6.72941617E-01
8.87500980E-01
8.93561068E-01
8.53468770E-01
9.68287261E-01
9.78829068E-01
8.68316385E-01
8.62251913E-01
5.23127942E-02
5.44143559E-01
5.88108345E-01
8.75270741E-01
8.55393195E-01
6.29873229E-01
8.37707501E-01
8.26365512E-01
9.35080178E-01
8.38748387E-01
1.82874313E-01
2.02505725E-01
1.64070820E-01
2.21282362E-01
7.11576245E-01
7.50190181E-01
7.32558411E-01
3.31985897E-01
3.16053630E-01
3.51973700E-01
5.21272012E-01
5.28934298E-01
7.73112803E-01
8.19738218E-02
1.44406186E-01
6.93718263E-01
7.14147244E-01
6.48385408E-02
2.22291203E-01
2.42465438E-01
2.60922356E-01
2.03404427E-01
1.83638095E-01
9.96348253E-01
3.21655170E-01
3.41764544E-01
2.96013686E-01
3.37763432E-01
3.62222072E-01
3.74754008E-01
4.02464376E-01
1.73483864E-01
2.23335811E-01
6.75572761E-01
8.12397742E-01
2.61485132E-01
2.81755879E-01
3.90396827E-01
2.99502699E-01
7.53793483E-01
9.73218107E-02
6.82603148E-02
