# vtk DataFile Version 1.0
ECM-CELL DIFFUSION-MECHANICS
ASCII

DATASET UNSTRUCTURED_GRID
POINTS      777 float
1.50000000E+01 3.00000000E+01 0.00000000E+00
-5.00000000E+00 3.00000000E+01 0.00000000E+00
5.00000000E+00 2.00000000E+01 0.00000000E+00
5.00000000E+00 -1.00000000E+01 0.00000000E+00
-2.50000000E+01 -1.00000000E+01 0.00000000E+00
-2.69134178E+01 -9.61939812E+00 0.00000000E+00
-2.85355339E+01 -8.53553391E+00 0.00000000E+00
-2.96193981E+01 -6.91341734E+00 0.00000000E+00
-3.00000000E+01 -5.00000000E+00 0.00000000E+00
-2.96193981E+01 -3.08658290E+00 0.00000000E+00
-2.85355339E+01 -1.46446609E+00 0.00000000E+00
-2.69134178E+01 -3.80602330E-01 0.00000000E+00
-2.50000000E+01 0.00000000E+00 0.00000000E+00
-5.00000000E+00 0.00000000E+00 0.00000000E+00
1.30000000E+01 3.00000000E+01 0.00000000E+00
1.10000000E+01 3.00000000E+01 0.00000000E+00
9.00000000E+00 3.00000000E+01 0.00000000E+00
7.00000000E+00 3.00000000E+01 0.00000000E+00
5.00000000E+00 3.00000000E+01 0.00000000E+00
3.00000000E+00 3.00000000E+01 0.00000000E+00
1.00000000E+00 3.00000000E+01 0.00000000E+00
-1.00000000E+00 3.00000000E+01 0.00000000E+00
-3.00000000E+00 3.00000000E+01 0.00000000E+00
6.42857122E+00 2.14285717E+01 0.00000000E+00
7.85714293E+00 2.28571434E+01 0.00000000E+00
9.28571415E+00 2.42857151E+01 0.00000000E+00
1.07142859E+01 2.57142849E+01 0.00000000E+00
1.21428576E+01 2.71428566E+01 0.00000000E+00
1.35714283E+01 2.85714283E+01 0.00000000E+00
5.00000000E+00 1.80000000E+01 0.00000000E+00
5.00000000E+00 1.60000000E+01 0.00000000E+00
5.00000000E+00 1.40000000E+01 0.00000000E+00
5.00000000E+00 1.20000000E+01 0.00000000E+00
5.00000000E+00 1.00000000E+01 0.00000000E+00
5.00000000E+00 8.00000000E+00 0.00000000E+00
5.00000000E+00 6.00000000E+00 0.00000000E+00
5.00000000E+00 4.00000000E+00 0.00000000E+00
5.00000000E+00 2.00000000E+00 0.00000000E+00
5.00000000E+00 0.00000000E+00 0.00000000E+00
5.00000000E+00 -2.00000000E+00 0.00000000E+00
5.00000000E+00 -4.00000000E+00 0.00000000E+00
5.00000000E+00 -6.00000000E+00 0.00000000E+00
5.00000000E+00 -8.00000000E+00 0.00000000E+00
3.00000000E+00 -1.00000000E+01 0.00000000E+00
1.00000000E+00 -1.00000000E+01 0.00000000E+00
-1.00000000E+00 -1.00000000E+01 0.00000000E+00
-3.00000000E+00 -1.00000000E+01 0.00000000E+00
-5.00000000E+00 -1.00000000E+01 0.00000000E+00
-7.00000000E+00 -1.00000000E+01 0.00000000E+00
-9.00000000E+00 -1.00000000E+01 0.00000000E+00
-1.10000000E+01 -1.00000000E+01 0.00000000E+00
-1.30000000E+01 -1.00000000E+01 0.00000000E+00
-1.50000000E+01 -1.00000000E+01 0.00000000E+00
-1.70000000E+01 -1.00000000E+01 0.00000000E+00
-1.90000000E+01 -1.00000000E+01 0.00000000E+00
-2.10000000E+01 -1.00000000E+01 0.00000000E+00
-2.30000000E+01 -1.00000000E+01 0.00000000E+00
-7.00000000E+00 0.00000000E+00 0.00000000E+00
-9.00000000E+00 0.00000000E+00 0.00000000E+00
-1.10000000E+01 0.00000000E+00 0.00000000E+00
-1.30000000E+01 0.00000000E+00 0.00000000E+00
-1.50000000E+01 0.00000000E+00 0.00000000E+00
-1.70000000E+01 0.00000000E+00 0.00000000E+00
-1.90000000E+01 0.00000000E+00 0.00000000E+00
-2.10000000E+01 0.00000000E+00 0.00000000E+00
-2.30000000E+01 0.00000000E+00 0.00000000E+00
-5.00000000E+00 2.80000000E+01 0.00000000E+00
-5.00000000E+00 2.60000000E+01 0.00000000E+00
-5.00000000E+00 2.40000000E+01 0.00000000E+00
-5.00000000E+00 2.20000000E+01 0.00000000E+00
-5.00000000E+00 2.00000000E+01 0.00000000E+00
-5.00000000E+00 1.80000000E+01 0.00000000E+00
-5.00000000E+00 1.60000000E+01 0.00000000E+00
-5.00000000E+00 1.40000000E+01 0.00000000E+00
-5.00000000E+00 1.20000000E+01 0.00000000E+00
-5.00000000E+00 1.00000000E+01 0.00000000E+00
-5.00000000E+00 8.00000000E+00 0.00000000E+00
-5.00000000E+00 6.00000000E+00 0.00000000E+00
-5.00000000E+00 4.00000000E+00 0.00000000E+00
-5.00000000E+00 2.00000000E+00 0.00000000E+00
-2.59871254E+01 -7.91282892E+00 0.00000000E+00
-2.72089272E+01 -7.22517633E+00 0.00000000E+00
-2.66474552E+01 -5.39335680E+00 0.00000000E+00
-2.69874706E+01 -4.19447088E+00 0.00000000E+00
3.56631780E+00 1.81858082E+01 0.00000000E+00
3.45538449E+00 1.60969982E+01 0.00000000E+00
-8.99606419E+00 -8.32854271E+00 0.00000000E+00
1.15325785E+01 2.76091194E+01 0.00000000E+00
8.69346333E+00 2.86210556E+01 0.00000000E+00
6.79735470E+00 2.83068199E+01 0.00000000E+00
4.81789303E+00 2.81218548E+01 0.00000000E+00
2.81581450E+00 2.80152245E+01 0.00000000E+00
8.33386540E-01 2.80571632E+01 0.00000000E+00
3.39765048E+00 1.40790730E+01 0.00000000E+00
3.36072111E+00 1.20805902E+01 0.00000000E+00
3.33418083E+00 1.00849323E+01 0.00000000E+00
3.31360078E+00 8.08838463E+00 0.00000000E+00
3.29503798E+00 6.08961487E+00 0.00000000E+00
3.27511024E+00 4.08798981E+00 0.00000000E+00
3.24555063E+00 2.08999419E+00 0.00000000E+00
-3.39916706E+00 1.91835046E-01 0.00000000E+00
3.19515896E+00 7.99414515E-02 0.00000000E+00
3.08858156E+00 -1.95740485E+00 0.00000000E+00
2.94115114E+00 -4.00789595E+00 0.00000000E+00
2.95735145E+00 -6.02382755E+00 0.00000000E+00
2.99156761E+00 -8.02272415E+00 0.00000000E+00
-3.03548622E+00 -8.25239944E+00 0.00000000E+00
-5.03107357E+00 -8.30240726E+00 0.00000000E+00
-7.01400518E+00 -8.32370090E+00 0.00000000E+00
-1.09846535E+01 -8.33255196E+00 0.00000000E+00
-1.29763451E+01 -8.34380913E+00 0.00000000E+00
-1.49628611E+01 -8.35872173E+00 0.00000000E+00
-1.69386921E+01 -8.37445927E+00 0.00000000E+00
-1.88995705E+01 -8.38477707E+00 0.00000000E+00
-2.08368797E+01 -8.38374519E+00 0.00000000E+00
-2.27050743E+01 -8.35194588E+00 0.00000000E+00
-2.44529305E+01 -1.81291687E+00 0.00000000E+00
-2.44611835E+01 -8.25364876E+00 0.00000000E+00
-7.03477573E+00 -1.61946285E+00 0.00000000E+00
-9.00131798E+00 -1.63337088E+00 0.00000000E+00
-1.09891205E+01 -1.64573705E+00 0.00000000E+00
-1.29806490E+01 -1.65276051E+00 0.00000000E+00
-1.49665661E+01 -1.65118086E+00 0.00000000E+00
-1.69362106E+01 -1.64144766E+00 0.00000000E+00
-1.88823471E+01 -1.62573457E+00 0.00000000E+00
-2.07968693E+01 -1.61687005E+00 0.00000000E+00
-2.26661606E+01 -1.65481305E+00 0.00000000E+00
-3.14961743E+00 2.61050987E+01 0.00000000E+00
-3.21332860E+00 2.41569138E+01 0.00000000E+00
-3.23101664E+00 2.21709061E+01 0.00000000E+00
-3.19988894E+00 2.01672287E+01 0.00000000E+00
-3.19480872E+00 1.81522160E+01 0.00000000E+00
-3.22400498E+00 1.61377392E+01 0.00000000E+00
-3.26183391E+00 1.41241846E+01 0.00000000E+00
-3.29545403E+00 1.21142969E+01 0.00000000E+00
-3.32145929E+00 1.01066618E+01 0.00000000E+00
-3.34261227E+00 8.10189915E+00 0.00000000E+00
-3.36075759E+00 6.10010099E+00 0.00000000E+00
-3.37989211E+00 4.10786200E+00 0.00000000E+00
-3.39658475E+00 2.12506461E+00 0.00000000E+00
9.87431145E+00 2.69113979E+01 0.00000000E+00
5.55943680E+00 2.24666195E+01 0.00000000E+00
8.27692127E+00 2.52841549E+01 0.00000000E+00
1.21497765E+01 2.87516937E+01 0.00000000E+00
7.00510788E+00 2.38013420E+01 0.00000000E+00
-2.55711937E+01 -3.71893096E+00 0.00000000E+00
-2.53829994E+01 -6.46415377E+00 0.00000000E+00
-3.41579247E+00 -1.53762901E+00 0.00000000E+00
-3.08106852E+00 2.80612659E+01 0.00000000E+00
-8.99859238E+00 -6.65214443E+00 0.00000000E+00
-1.29351008E+00 2.61693573E+01 0.00000000E+00
6.86967373E+00 2.63770676E+01 0.00000000E+00
1.54031169E+00 2.17246723E+00 0.00000000E+00
1.31703186E+00 -1.76688719E+00 0.00000000E+00
-5.08228636E+00 -6.62115431E+00 0.00000000E+00
-9.00249004E+00 -3.29739213E+00 0.00000000E+00
-1.09824476E+01 -3.30994868E+00 0.00000000E+00
-1.29688711E+01 -3.32068324E+00 0.00000000E+00
-1.49453335E+01 -3.32586026E+00 0.00000000E+00
-1.68954639E+01 -3.31989431E+00 0.00000000E+00
-1.88051834E+01 -3.30147409E+00 0.00000000E+00
-2.24104786E+01 -3.31642485E+00 0.00000000E+00
-1.47017288E+00 2.42874813E+01 0.00000000E+00
4.75124407E+00 2.61952667E+01 0.00000000E+00
-1.41161871E+00 2.03558025E+01 0.00000000E+00
-1.41152394E+00 1.82831421E+01 0.00000000E+00
-1.47984684E+00 1.62193718E+01 0.00000000E+00
-1.55269098E+00 1.41849861E+01 0.00000000E+00
-1.61183786E+00 1.21700039E+01 0.00000000E+00
-1.65644002E+00 1.01618252E+01 0.00000000E+00
-1.69045985E+00 8.15654087E+00 0.00000000E+00
-1.74818420E+00 4.17103720E+00 0.00000000E+00
2.63595510E+00 2.58476467E+01 0.00000000E+00
5.85341334E-01 2.61480026E+01 0.00000000E+00
1.48443735E+00 1.99812949E-01 0.00000000E+00
7.22676218E-01 -3.93087220E+00 0.00000000E+00
-1.02083135E+00 -8.16479301E+00 0.00000000E+00
-7.03490305E+00 -6.64700460E+00 0.00000000E+00
-1.09789371E+01 -6.66079235E+00 0.00000000E+00
-1.29644680E+01 -6.67540455E+00 0.00000000E+00
-1.49419928E+01 -6.69405699E+00 0.00000000E+00
-1.68996048E+01 -6.70987225E+00 0.00000000E+00
-1.88245621E+01 -6.71467447E+00 0.00000000E+00
-2.06824856E+01 -6.69600010E+00 0.00000000E+00
-2.06575108E+01 -3.28913999E+00 0.00000000E+00
-2.24377365E+01 -6.66452074E+00 0.00000000E+00
-1.53943622E+00 2.23406563E+01 0.00000000E+00
1.86250246E+00 1.61861019E+01 0.00000000E+00
1.77246237E+00 1.41486263E+01 0.00000000E+00
1.71115601E+00 1.21418839E+01 0.00000000E+00
1.66675675E+00 1.01430874E+01 0.00000000E+00
1.63350880E+00 8.14535809E+00 0.00000000E+00
1.60673702E+00 6.14654064E+00 0.00000000E+00
-1.71792471E+00 6.15320969E+00 0.00000000E+00
1.58160424E+00 4.14921808E+00 0.00000000E+00
-1.77281892E+00 2.20080662E+00 0.00000000E+00
2.01078510E+00 1.82713623E+01 0.00000000E+00
-2.40447159E+01 -6.61500549E+00 0.00000000E+00
-2.40787086E+01 -3.44673610E+00 0.00000000E+00
3.91073895E+00 2.06671638E+01 0.00000000E+00
4.69771385E+00 2.40344315E+01 0.00000000E+00
2.23431134E+00 2.02954235E+01 0.00000000E+00
-2.63834591E+01 -6.32643604E+00 0.00000000E+00
2.15098262E-01 1.62336769E+01 0.00000000E+00
-5.16005945E+00 -3.28352356E+00 0.00000000E+00
9.15533721E-01 -6.09541035E+00 0.00000000E+00
-3.12387347E+00 -6.53723431E+00 0.00000000E+00
-5.13622618E+00 -4.95174408E+00 0.00000000E+00
-9.00362396E+00 -4.97516680E+00 0.00000000E+00
-1.09809561E+01 -4.98574305E+00 0.00000000E+00
-1.29646101E+01 -4.99896383E+00 0.00000000E+00
-1.49383945E+01 -5.01089621E+00 0.00000000E+00
-1.75341535E+00 -3.10992193E+00 0.00000000E+00
-7.05302477E+00 -4.96985292E+00 0.00000000E+00
[...]
POINT_DATA      777
SCALARS Ux float
LOOKUP_TABLE default
1.00000000E+00
9.25558704E-01
1.00000000E+00
4.65517050E-01
-3.46944695E-17
-9.88792381E-17
-1.10154941E-16
9.49761103E-17
-8.71698547E-17
-1.04083409E-16
-7.80625564E-17
-1.49186219E-16
-6.41847686E-17
4.65542092E-01
9.98683315E-01
9.94295664E-01
9.87041598E-01
9.77121584E-01
9.65512169E-01
9.53456538E-01
9.42252735E-01
9.33248486E-01
9.27494794E-01
1.00000000E+00
1.00000000E+00
1.00000000E+00
1.00000000E+00
1.00000000E+00
1.00000000E+00
8.85428758E-01
8.36813087E-01
7.91697665E-01
7.50685524E-01
7.11350905E-01
6.73222524E-01
6.36277291E-01
6.00908674E-01
5.67847223E-01
5.38073008E-01
5.12671264E-01
4.92386553E-01
4.77550290E-01
4.68527667E-01
4.62556465E-01
4.53674000E-01
4.38985534E-01
4.18677931E-01
3.93232388E-01
3.63503612E-01
3.30551593E-01
2.95399517E-01
2.58870843E-01
2.21535412E-01
1.83723065E-01
1.45533021E-01
1.06518460E-01
6.58146034E-02
3.91373153E-01
3.45425495E-01
3.03105106E-01
2.62907486E-01
2.23635395E-01
1.84798101E-01
1.46048654E-01
1.06698308E-01
6.57509160E-02
9.23588964E-01
9.17429190E-01
9.06657600E-01
8.90729058E-01
8.69438639E-01
8.43173026E-01
8.12718431E-01
7.79075778E-01
7.43235496E-01
7.05918906E-01
6.67439413E-01
6.27655502E-01
5.85538819E-01
5.39678830E-01
2.04671881E-02
1.36423203E-02
2.34595486E-02
1.96342540E-02
8.92702928E-01
8.36063674E-01
3.31361686E-01
9.97768993E-01
9.86333174E-01
9.76593094E-01
9.64630031E-01
9.51844071E-01
9.40225897E-01
7.92547387E-01
7.51754360E-01
7.12625144E-01
6.74506886E-01
6.37381424E-01
6.01616911E-01
5.68058369E-01
4.99562228E-01
5.37437376E-01
5.10705941E-01
4.89355605E-01
4.74284802E-01
4.65445745E-01
4.20255129E-01
3.94331961E-01
3.64391946E-01
2.96127968E-01
2.59562593E-01
2.22374839E-01
1.84988410E-01
1.47600482E-01
1.10312388E-01
7.27151359E-02
4.18248317E-02
4.12460086E-02
3.89039702E-01
3.43985200E-01
3.02778458E-01
2.63006592E-01
2.24152369E-01
1.85994822E-01
1.48404204E-01
1.11271068E-01
7.34867580E-02
9.19764447E-01
9.09713279E-01
8.94461776E-01
8.73537335E-01
8.47133743E-01
8.16229546E-01
7.82057614E-01
7.45833741E-01
7.08307669E-01
6.69821994E-01
6.30269287E-01
5.89257252E-01
5.44186667E-01
9.93790054E-01
9.82891396E-01
9.90982944E-01
9.97694546E-01
9.88961281E-01
3.43720914E-02
3.64289349E-02
4.66161838E-01
9.25554733E-01
3.33501897E-01
9.25703411E-01
9.79720584E-01
5.65941645E-01
5.06488267E-01
3.98167489E-01
3.40860852E-01
3.01352263E-01
2.62468257E-01
2.24181098E-01
1.86639916E-01
1.50058265E-01
8.26182799E-02
9.16428371E-01
9.64955797E-01
8.82278275E-01
8.54560463E-01
8.21351112E-01
7.85412557E-01
7.48236685E-01
7.10350425E-01
6.71931552E-01
5.93531634E-01
9.48511252E-01
9.34966846E-01
5.34370408E-01
4.79682266E-01
4.41214292E-01
3.67380616E-01
2.97524153E-01
2.60499425E-01
2.23163529E-01
1.85992222E-01
1.49399360E-01
1.14238922E-01
1.14819214E-01
8.21589175E-02
9.02305809E-01
8.33463080E-01
7.91297756E-01
7.51539048E-01
7.12729896E-01
6.74550641E-01
6.36980734E-01
6.32956924E-01
6.00423484E-01
5.53816063E-01
8.77238728E-01
5.52455901E-02
5.47817294E-02
9.54585607E-01
9.66383999E-01
9.13482557E-01
2.45311421E-02
8.27452662E-01
4.15973382E-01
4.64398899E-01
4.25045577E-01
4.05047367E-01
3.36805365E-01
2.99376573E-01
2.61507484E-01
2.23776454E-01
4.66865119E-01
3.72556165E-01
1.86554661E-01
5.01650577E-01
5.28388711E-01
5.61205314E-01
5.97497741E-01
6.35207507E-01
6.73407707E-01
7.11693853E-01
9.13391258E-01
7.50034541E-01
9.25643746E-01
7.88558446E-01
8.99049245E-01
8.65182640E-01
9.40714080E-01
1.16101905E-01
8.51364309E-02
9.48936432E-01
5.17152539E-01
4.88046433E-01
4.45108550E-01
4.56584776E-01
4.32960547E-01
4.56346015E-01
9.79419867E-01
9.93140754E-01
9.31163506E-01
1.10141343E-02
9.06812549E-03
6.72910258E-03
1.98916265E-02
4.33121870E-01
9.87464505E-01
1.14902626E-02
3.79939651E-01
4.47578766E-01
4.82654556E-01
9.31422095E-01
3.90230796E-02
5.90220619E-02
9.25123885E-01
9.23459382E-01
9.51951034E-01
9.34578239E-01
1.50261456E-01
1.00000000E+00
9.25558704E-01
1.00000000E+00
4.65517050E-01
0.00000000E+00
-1.85615412E-16
1.12757026E-17
-6.24500451E-17
-1.57859836E-16
-1.18828558E-16
-3.20923843E-17
-3.46944695E-18
-1.66533454E-16
4.65542092E-01
9.98683315E-01
9.94295664E-01
9.87041598E-01
9.77121584E-01
9.65512169E-01
9.53456538E-01
9.42252735E-01
9.33248486E-01
9.27494794E-01
1.00000000E+00
1.00000000E+00
1.00000000E+00
1.00000000E+00
1.00000000E+00
1.00000000E+00
8.85428758E-01
8.36813087E-01
7.91697665E-01
7.50685524E-01
7.11350905E-01
6.73222524E-01
6.36277291E-01
6.00908674E-01
5.67847223E-01
5.38073008E-01
5.12671264E-01
4.92386553E-01
4.77550290E-01
4.68527667E-01
4.62556465E-01
4.53674000E-01
4.38985534E-01
4.18677931E-01
3.93232388E-01
3.63503612E-01
3.30551593E-01
2.95399517E-01
2.58870843E-01
2.21535412E-01
1.83723065E-01
1.45533021E-01
1.06518460E-01
6.58146034E-02
3.91373153E-01
3.45425495E-01
3.03105106E-01
2.62907486E-01
2.23635395E-01
1.84798101E-01
1.46048654E-01
1.06698308E-01
6.57509160E-02
9.23588964E-01
9.17429190E-01
9.06657600E-01
8.90729058E-01
8.69438639E-01
8.43173026E-01
8.12718431E-01
7.79075778E-01
7.43235496E-01
7.05918906E-01
6.67439413E-01
6.27655502E-01
5.85538819E-01
5.39678830E-01
2.04671881E-02
1.36423203E-02
2.34595486E-02
1.96342540E-02
8.92702928E-01
8.36063674E-01
3.31361686E-01
9.97768993E-01
9.86333174E-01
9.76593094E-01
9.64630031E-01
9.51844071E-01
9.40225897E-01
7.92547387E-01
7.51754360E-01
7.12625144E-01
6.74506886E-01
6.37381424E-01
6.01616911E-01
5.68058369E-01
4.99562228E-01
5.37437376E-01
5.10705941E-01
4.89355605E-01
4.74284802E-01
4.65445745E-01
4.20255129E-01
3.94331961E-01
3.64391946E-01
2.96127968E-01
2.59562593E-01
2.22374839E-01
1.84988410E-01
1.47600482E-01
1.10312388E-01
7.27151359E-02
4.18248317E-02
4.12460086E-02
3.89039702E-01
3.43985200E-01
3.02778458E-01
2.63006592E-01
2.24152369E-01
1.85994822E-01
1.48404204E-01
1.11271068E-01
7.34867580E-02
9.19764447E-01
9.09713279E-01
8.94461776E-01
8.73537335E-01
8.47133743E-01
8.16229546E-01
7.82057614E-01
7.45833741E-01
7.08307669E-01
6.69821994E-01
6.30269287E-01
5.89257252E-01
5.44186667E-01
9.93790054E-01
9.82891396E-01
9.90982944E-01
9.97694546E-01
9.88961281E-01
3.43720914E-02
3.64289349E-02
4.66161838E-01
9.25554733E-01
3.33501897E-01
9.25703411E-01
9.79720584E-01
5.65941645E-01
5.06488267E-01
3.98167489E-01
3.40860852E-01
3.01352263E-01
2.62468257E-01
2.24181098E-01
1.86639916E-01
1.50058265E-01
8.26182799E-02
9.16428371E-01
9.64955797E-01
8.82278275E-01
8.54560463E-01
8.21351112E-01
7.85412557E-01
7.48236685E-01
7.10350425E-01
6.71931552E-01
5.93531634E-01
9.48511252E-01
9.34966846E-01
5.34370408E-01
4.79682266E-01
4.41214292E-01
3.67380616E-01
2.97524153E-01
2.60499425E-01
2.23163529E-01
1.85992222E-01
1.49399360E-01
1.14238922E-01
1.14819214E-01
8.21589175E-02
9.02305809E-01
8.33463080E-01
7.91297756E-01
7.51539048E-01
7.12729896E-01
6.74550641E-01
6.36980734E-01
6.32956924E-01
6.00423484E-01
5.53816063E-01
8.77238728E-01
5.52455901E-02
5.47817294E-02
9.54585607E-01
9.66383999E-01
9.13482557E-01
2.45311421E-02
8.27452662E-01
4.15973382E-01
4.64398899E-01
4.25045577E-01
4.05047367E-01
3.36805365E-01
2.99376573E-01
2.61507484E-01
2.23776454E-01
4.66865119E-01
3.72556165E-01
1.86554661E-01
5.01650577E-01
5.28388711E-01
5.61205314E-01
5.97497741E-01
6.35207507E-01
6.73407707E-01
7.11693853E-01
9.13391258E-01
7.50034541E-01
9.25643746E-01
7.88558446E-01
8.99049245E-01
8.65182640E-01
9.40714080E-01
1.16101905E-01
8.51364309E-02
9.48936432E-01
5.17152539E-01
4.88046433E-01
4.45108550E-01
4.56584776E-01
4.32960547E-01
4.56346015E-01
9.79419867E-01
9.93140754E-01
9.31163506E-01
1.10141343E-02
9.06812549E-03
6.72910258E-03
1.98916265E-02
4.33121870E-01
9.87464505E-01
1.14902626E-02
3.79939651E-01
4.47578766E-01
4.82654556E-01
9.31422095E-01
3.90230796E-02
5.90220619E-02
9.25123885E-01
9.23459382E-01
9.51951034E-01
9.34578239E-01
1.50261456E-01
1.00000000E+00
9.25558704E-01
1.00000000E+00
4.65517050E-01
-3.46944695E-18
-2.32452946E-16
-1.47451495E-17
6.24500451E-17
2.77555756E-17
1.19695920E-16
-9.54097912E-17
-2.60208521E-17
-5.20417043E-17
4.65542092E-01
9.98683315E-01
9.94295664E-01
9.87041598E-01
9.77121584E-01
9.65512169E-01
9.53456538E-01
9.42252735E-01
9.33248486E-01
9.27494794E-01
1.00000000E+00
1.00000000E+00
1.00000000E+00
1.00000000E+00
1.00000000E+00
1.00000000E+00
8.85428758E-01
8.36813087E-01
7.91697665E-01
7.50685524E-01
7.11350905E-01
6.73222524E-01
6.36277291E-01
6.00908674E-01
5.67847223E-01
5.38073008E-01
5.12671264E-01
4.92386553E-01
4.77550290E-01
4.68527667E-01
4.62556465E-01
4.53674000E-01
4.38985534E-01
4.18677931E-01
3.93232388E-01
3.63503612E-01
3.30551593E-01
2.95399517E-01
2.58870843E-01
2.21535412E-01
1.83723065E-01
1.45533021E-01
1.06518460E-01
6.58146034E-02
3.91373153E-01
3.45425495E-01
3.03105106E-01
2.62907486E-01
2.23635395E-01
1.84798101E-01
1.46048654E-01
1.06698308E-01
6.57509160E-02
9.23588964E-01
9.17429190E-01
9.06657600E-01
8.90729058E-01
8.69438639E-01
8.43173026E-01
8.12718431E-01
7.79075778E-01
7.43235496E-01
7.05918906E-01
6.67439413E-01
6.27655502E-01
5.85538819E-01
5.39678830E-01
2.04671881E-02
1.36423203E-02
2.34595486E-02
1.96342540E-02
8.92702928E-01
8.36063674E-01
3.31361686E-01
9.97768993E-01
9.86333174E-01
9.76593094E-01
9.64630031E-01
9.51844071E-01
9.40225897E-01
7.92547387E-01
7.51754360E-01
7.12625144E-01
6.74506886E-01
6.37381424E-01
6.01616911E-01
5.68058369E-01
4.99562228E-01
5.37437376E-01
5.10705941E-01
4.89355605E-01
4.74284802E-01
4.65445745E-01
4.20255129E-01
3.94331961E-01
3.64391946E-01
2.96127968E-01
2.59562593E-01
2.22374839E-01
1.84988410E-01
1.47600482E-01
1.10312388E-01
7.27151359E-02
4.18248317E-02
4.12460086E-02
3.89039702E-01
3.43985200E-01
3.02778458E-01
2.63006592E-01
2.24152369E-01
1.85994822E-01
1.48404204E-01
1.11271068E-01
7.34867580E-02
9.19764447E-01
9.09713279E-01
8.94461776E-01
8.73537335E-01
8.47133743E-01
8.16229546E-01
7.82057614E-01
7.45833741E-01
7.08307669E-01
6.69821994E-01
6.30269287E-01
5.89257252E-01
5.44186667E-01
9.93790054E-01
9.82891396E-01
9.90982944E-01
9.97694546E-01
9.88961281E-01
3.43720914E-02
3.64289349E-02
4.66161838E-01
9.25554733E-01
3.33501897E-01
9.25703411E-01
9.79720584E-01
5.65941645E-01
5.06488267E-01
3.98167489E-01
3.40860852E-01
3.01352263E-01
2.62468257E-01
2.24181098E-01
1.86639916E-01
1.50058265E-01
8.26182799E-02
9.16428371E-01
9.64955797E-01
8.82278275E-01
8.54560463E-01
8.21351112E-01
7.85412557E-01
7.48236685E-01
7.10350425E-01
6.71931552E-01
5.93531634E-01
9.48511252E-01
9.34966846E-01
5.34370408E-01
4.79682266E-01
4.41214292E-01
3.67380616E-01
2.97524153E-01
2.60499425E-01
2.23163529E-01
1.85992222E-01
1.49399360E-01
1.14238922E-01
1.14819214E-01
8.21589175E-02
9.02305809E-01
8.33463080E-01
7.91297756E-01
7.51539048E-01
7.12729896E-01
6.74550641E-01
6.36980734E-01
6.32956924E-01
6.00423484E-01
5.53816063E-01
8.77238728E-01
5.52455901E-02
5.47817294E-02
9.54585607E-01
9.66383999E-01
9.13482557E-01
2.45311421E-02
8.27452662E-01
4.15973382E-01
4.64398899E-01
4.25045577E-01
4.05047367E-01
3.36805365E-01
2.99376573E-01
2.61507484E-01
2.23776454E-01
4.66865119E-01
3.72556165E-01
1.86554661E-01
5.01650577E-01
5.28388711E-01
5.61205314E-01
5.97497741E-01
6.35207507E-01
6.73407707E-01
7.11693853E-01
9.13391258E-01
7.50034541E-01
9.25643746E-01
7.88558446E-01
8.99049245E-01
8.65182640E-01
9.40714080E-01
1.16101905E-01
8.51364309E-02
9.48936432E-01
5.17152539E-01
4.88046433E-01
4.45108550E-01
4.56584776E-01
4.32960547E-01
4.56346015E-01
9.79419867E-01
9.93140754E-01
9.31163506E-01
1.10141343E-02
9.06812549E-03
6.72910258E-03
1.98916265E-02
4.33121870E-01
9.87464505E-01
1.14902626E-02
3.79939651E-01
4.47578766E-01
4.82654556E-01
9.31422095E-01
3.90230796E-02
5.90220619E-02
9.25123885E-01
9.23459382E-01
9.51951034E-01
9.34578239E-01
1.50261456E-01
