# vtk DataFile Version 1.0
ECM-CELL DIFFUSION-MECHANICS
ASCII

DATASET UNSTRUCTURED_GRID
POINTS     4526 float
-5.00000000E+00 0.00000000E+00 3.00000000E+00
-5.00000000E+00 3.00000000E+01 3.00000000E+00
-5.00000000E+00 3.00000000E+01 0.00000000E+00
-5.00000000E+00 0.00000000E+00 0.00000000E+00
1.50000000E+01 3.00000000E+01 3.00000000E+00
1.50000000E+01 3.00000000E+01 0.00000000E+00
-2.50000000E+01 -1.00000000E+01 3.00000000E+00
-2.50000000E+01 0.00000000E+00 3.00000000E+00
-2.50000000E+01 0.00000000E+00 0.00000000E+00
-2.50000000E+01 -1.00000000E+01 0.00000000E+00
5.00000000E+00 2.00000000E+01 3.00000000E+00
5.00000000E+00 2.00000000E+01 0.00000000E+00
5.00000000E+00 -1.00000000E+01 0.00000000E+00
5.00000000E+00 -1.00000000E+01 3.00000000E+00
-5.00000000E+00 2.00000000E+00 3.00000000E+00
-5.00000000E+00 4.00000000E+00 3.00000000E+00
-5.00000000E+00 6.00000000E+00 3.00000000E+00
-5.00000000E+00 8.00000000E+00 3.00000000E+00
-5.00000000E+00 1.00000000E+01 3.00000000E+00
-5.00000000E+00 1.20000000E+01 3.00000000E+00
-5.00000000E+00 1.40000000E+01 3.00000000E+00
-5.00000000E+00 1.60000000E+01 3.00000000E+00
-5.00000000E+00 1.80000000E+01 3.00000000E+00
-5.00000000E+00 2.00000000E+01 3.00000000E+00
-5.00000000E+00 2.20000000E+01 3.00000000E+00
-5.00000000E+00 2.40000000E+01 3.00000000E+00
-5.00000000E+00 2.60000000E+01 3.00000000E+00
-5.00000000E+00 2.80000000E+01 3.00000000E+00
-5.00000000E+00 3.00000000E+01 1.50000000E+00
-5.00000000E+00 2.80000000E+01 0.00000000E+00
-5.00000000E+00 2.60000000E+01 0.00000000E+00
-5.00000000E+00 2.40000000E+01 0.00000000E+00
-5.00000000E+00 2.20000000E+01 0.00000000E+00
-5.00000000E+00 2.00000000E+01 0.00000000E+00
-5.00000000E+00 1.80000000E+01 0.00000000E+00
-5.00000000E+00 1.60000000E+01 0.00000000E+00
-5.00000000E+00 1.40000000E+01 0.00000000E+00
-5.00000000E+00 1.20000000E+01 0.00000000E+00
-5.00000000E+00 1.00000000E+01 0.00000000E+00
-5.00000000E+00 8.00000000E+00 0.00000000E+00
-5.00000000E+00 6.00000000E+00 0.00000000E+00
-5.00000000E+00 4.00000000E+00 0.00000000E+00
-5.00000000E+00 2.00000000E+00 0.00000000E+00
-5.00000000E+00 0.00000000E+00 1.50000000E+00
-3.00000000E+00 3.00000000E+01 3.00000000E+00
-1.00000000E+00 3.00000000E+01 3.00000000E+00
1.00000000E+00 3.00000000E+01 3.00000000E+00
3.00000000E+00 3.00000000E+01 3.00000000E+00
5.00000000E+00 3.00000000E+01 3.00000000E+00
7.00000000E+00 3.00000000E+01 3.00000000E+00
9.00000000E+00 3.00000000E+01 3.00000000E+00
1.10000000E+01 3.00000000E+01 3.00000000E+00
1.30000000E+01 3.00000000E+01 3.00000000E+00
1.50000000E+01 3.00000000E+01 1.50000000E+00
1.30000000E+01 3.00000000E+01 0.00000000E+00
1.10000000E+01 3.00000000E+01 0.00000000E+00
9.00000000E+00 3.00000000E+01 0.00000000E+00
7.00000000E+00 3.00000000E+01 0.00000000E+00
5.00000000E+00 3.00000000E+01 0.00000000E+00
3.00000000E+00 3.00000000E+01 0.00000000E+00
1.00000000E+00 3.00000000E+01 0.00000000E+00
-1.00000000E+00 3.00000000E+01 0.00000000E+00
-3.00000000E+00 3.00000000E+01 0.00000000E+00
-2.69134178E+01 -9.61939812E+00 3.00000000E+00
-2.85355339E+01 -8.53553391E+00 3.00000000E+00
-2.96193981E+01 -6.91341734E+00 3.00000000E+00
-3.00000000E+01 -5.00000000E+00 3.00000000E+00
-2.96193981E+01 -3.08658290E+00 3.00000000E+00
-2.85355339E+01 -1.46446609E+00 3.00000000E+00
-2.69134178E+01 -3.80602330E-01 3.00000000E+00
-2.50000000E+01 0.00000000E+00 1.50000000E+00
-2.69134178E+01 -3.80602330E-01 0.00000000E+00
-2.85355339E+01 -1.46446609E+00 0.00000000E+00
-2.96193981E+01 -3.08658290E+00 0.00000000E+00
-3.00000000E+01 -5.00000000E+00 0.00000000E+00
-2.96193981E+01 -6.91341734E+00 0.00000000E+00
-2.85355339E+01 -8.53553391E+00 0.00000000E+00
-2.69134178E+01 -9.61939812E+00 0.00000000E+00
-2.50000000E+01 -1.00000000E+01 1.50000000E+00
-2.30000000E+01 0.00000000E+00 3.00000000E+00
-2.10000000E+01 0.00000000E+00 3.00000000E+00
-1.90000000E+01 0.00000000E+00 3.00000000E+00
-1.70000000E+01 0.00000000E+00 3.00000000E+00
-1.50000000E+01 0.00000000E+00 3.00000000E+00
-1.30000000E+01 0.00000000E+00 3.00000000E+00
-1.10000000E+01 0.00000000E+00 3.00000000E+00
-9.00000000E+00 0.00000000E+00 3.00000000E+00
-7.00000000E+00 0.00000000E+00 3.00000000E+00
-7.00000000E+00 0.00000000E+00 0.00000000E+00
-9.00000000E+00 0.00000000E+00 0.00000000E+00
-1.10000000E+01 0.00000000E+00 0.00000000E+00
-1.30000000E+01 0.00000000E+00 0.00000000E+00
-1.50000000E+01 0.00000000E+00 0.00000000E+00
-1.70000000E+01 0.00000000E+00 0.00000000E+00
-1.90000000E+01 0.00000000E+00 0.00000000E+00
-2.10000000E+01 0.00000000E+00 0.00000000E+00
-2.30000000E+01 0.00000000E+00 0.00000000E+00
1.35714283E+01 2.85714283E+01 3.00000000E+00
1.21428576E+01 2.71428566E+01 3.00000000E+00
1.07142859E+01 2.57142849E+01 3.00000000E+00
9.28571415E+00 2.42857151E+01 3.00000000E+00
7.85714293E+00 2.28571434E+01 3.00000000E+00
6.42857122E+00 2.14285717E+01 3.00000000E+00
5.00000000E+00 2.00000000E+01 1.50000000E+00
6.42857122E+00 2.14285717E+01 0.00000000E+00
7.85714293E+00 2.28571434E+01 0.00000000E+00
9.28571415E+00 2.42857151E+01 0.00000000E+00
1.07142859E+01 2.57142849E+01 0.00000000E+00
1.21428576E+01 2.71428566E+01 0.00000000E+00
1.35714283E+01 2.85714283E+01 0.00000000E+00
5.00000000E+00 1.80000000E+01 0.00000000E+00
5.00000000E+00 1.60000000E+01 0.00000000E+00
5.00000000E+00 1.40000000E+01 0.00000000E+00
5.00000000E+00 1.20000000E+01 0.00000000E+00
5.00000000E+00 1.00000000E+01 0.00000000E+00
5.00000000E+00 8.00000000E+00 0.00000000E+00
5.00000000E+00 6.00000000E+00 0.00000000E+00
5.00000000E+00 4.00000000E+00 0.00000000E+00
5.00000000E+00 2.00000000E+00 0.00000000E+00
5.00000000E+00 0.00000000E+00 0.00000000E+00
5.00000000E+00 -2.00000000E+00 0.00000000E+00
5.00000000E+00 -4.00000000E+00 0.00000000E+00
5.00000000E+00 -6.00000000E+00 0.00000000E+00
5.00000000E+00 -8.00000000E+00 0.00000000E+00
3.00000000E+00 -1.00000000E+01 0.00000000E+00
1.00000000E+00 -1.00000000E+01 0.00000000E+00
-1.00000000E+00 -1.00000000E+01 0.00000000E+00
-3.00000000E+00 -1.00000000E+01 0.00000000E+00
-5.00000000E+00 -1.00000000E+01 0.00000000E+00
-7.00000000E+00 -1.00000000E+01 0.00000000E+00
-9.00000000E+00 -1.00000000E+01 0.00000000E+00
-1.10000000E+01 -1.00000000E+01 0.00000000E+00
-1.30000000E+01 -1.00000000E+01 0.00000000E+00
-1.50000000E+01 -1.00000000E+01 0.00000000E+00
-1.70000000E+01 -1.00000000E+01 0.00000000E+00
-1.90000000E+01 -1.00000000E+01 0.00000000E+00
-2.10000000E+01 -1.00000000E+01 0.00000000E+00
-2.30000000E+01 -1.00000000E+01 0.00000000E+00
3.00000000E+00 -1.00000000E+01 3.00000000E+00
1.00000000E+00 -1.00000000E+01 3.00000000E+00
-1.00000000E+00 -1.00000000E+01 3.00000000E+00
-3.00000000E+00 -1.00000000E+01 3.00000000E+00
-5.00000000E+00 -1.00000000E+01 3.00000000E+00
-7.00000000E+00 -1.00000000E+01 3.00000000E+00
-9.00000000E+00 -1.00000000E+01 3.00000000E+00
-1.10000000E+01 -1.00000000E+01 3.00000000E+00
-1.30000000E+01 -1.00000000E+01 3.00000000E+00
-1.50000000E+01 -1.00000000E+01 3.00000000E+00
-1.70000000E+01 -1.00000000E+01 3.00000000E+00
-1.90000000E+01 -1.00000000E+01 3.00000000E+00
-2.10000000E+01 -1.00000000E+01 3.00000000E+00
-2.30000000E+01 -1.00000000E+01 3.00000000E+00
5.00000000E+00 -1.00000000E+01 1.50000000E+00
5.00000000E+00 -8.00000000E+00 3.00000000E+00
5.00000000E+00 -6.00000000E+00 3.00000000E+00
5.00000000E+00 -4.00000000E+00 3.00000000E+00
5.00000000E+00 -2.00000000E+00 3.00000000E+00
5.00000000E+00 0.00000000E+00 3.00000000E+00
5.00000000E+00 2.00000000E+00 3.00000000E+00
5.00000000E+00 4.00000000E+00 3.00000000E+00
5.00000000E+00 6.00000000E+00 3.00000000E+00
5.00000000E+00 8.00000000E+00 3.00000000E+00
5.00000000E+00 1.00000000E+01 3.00000000E+00
5.00000000E+00 1.20000000E+01 3.00000000E+00
5.00000000E+00 1.40000000E+01 3.00000000E+00
5.00000000E+00 1.60000000E+01 3.00000000E+00
5.00000000E+00 1.80000000E+01 3.00000000E+00
-5.00000000E+00 2.00000000E+00 1.50000000E+00
-5.00000000E+00 4.00000000E+00 1.50000000E+00
-5.00000000E+00 6.00000000E+00 1.50000000E+00
-5.00000000E+00 8.00000000E+00 1.50000000E+00
-5.00000000E+00 1.00000000E+01 1.50000000E+00
-5.00000000E+00 1.20000000E+01 1.50000000E+00
-5.00000000E+00 1.40000000E+01 1.50000000E+00
-5.00000000E+00 1.60000000E+01 1.50000000E+00
-5.00000000E+00 1.80000000E+01 1.50000000E+00
-5.00000000E+00 2.00000000E+01 1.50000000E+00
-5.00000000E+00 2.20000000E+01 1.50000000E+00
-5.00000000E+00 2.40000000E+01 1.50000000E+00
-5.00000000E+00 2.60000000E+01 1.50000000E+00
-5.00000000E+00 2.80000000E+01 1.50000000E+00
-3.00000000E+00 3.00000000E+01 1.50000000E+00
-1.00000000E+00 3.00000000E+01 1.50000000E+00
1.00000000E+00 3.00000000E+01 1.50000000E+00
3.00000000E+00 3.00000000E+01 1.50000000E+00
5.00000000E+00 3.00000000E+01 1.50000000E+00
7.00000000E+00 3.00000000E+01 1.50000000E+00
9.00000000E+00 3.00000000E+01 1.50000000E+00
1.10000000E+01 3.00000000E+01 1.50000000E+00
1.30000000E+01 3.00000000E+01 1.50000000E+00
-2.69134178E+01 -9.61939716E+00 1.50000000E+00
-2.85355339E+01 -8.53553391E+00 1.50000000E+00
-2.96193981E+01 -6.91341734E+00 1.50000000E+00
-3.00000000E+01 -5.00000000E+00 1.50000000E+00
-2.96193981E+01 -3.08658314E+00 1.50000000E+00
-2.85355339E+01 -1.46446609E+00 1.50000000E+00
-2.69134178E+01 -3.80602568E-01 1.50000000E+00
-2.30000000E+01 0.00000000E+00 1.50000000E+00
-2.10000000E+01 0.00000000E+00 1.50000000E+00
-1.90000000E+01 0.00000000E+00 1.50000000E+00
-1.70000000E+01 0.00000000E+00 1.50000000E+00
-1.50000000E+01 0.00000000E+00 1.50000000E+00
-1.30000000E+01 0.00000000E+00 1.50000000E+00
-1.10000000E+01 0.00000000E+00 1.50000000E+00
-9.00000000E+00 0.00000000E+00 1.50000000E+00
-7.00000000E+00 0.00000000E+00 1.50000000E+00
1.35714283E+01 2.85714283E+01 1.50000000E+00
1.21428566E+01 2.71428566E+01 1.50000000E+00
1.07142849E+01 2.57142849E+01 1.50000000E+00
9.28571510E+00 2.42857151E+01 1.50000000E+00
7.85714340E+00 2.28571434E+01 1.50000000E+00
6.42857170E+00 2.14285717E+01 1.50000000E+00
-2.63057060E+01 -7.90332747E+00 0.00000000E+00
-2.81559620E+01 -6.51537371E+00 0.00000000E+00
-2.78773251E+01 -4.67539501E+00 0.00000000E+00
[...]
POINT_DATA     4526
SCALARS Ux float
LOOKUP_TABLE default
4.64518089E-01
9.21907464E-01
9.21904052E-01
4.62783124E-01
1.00000000E+00
1.00000000E+00
-1.69135539E-16
-6.08887940E-16
-4.40619763E-16
-3.61256164E-16
1.00000000E+00
1.00000000E+00
4.63916011E-01
4.63916014E-01
5.37066765E-01
5.83379612E-01
6.24837592E-01
6.64115832E-01
7.02097321E-01
7.38967043E-01
7.74470884E-01
8.07996363E-01
8.38493316E-01
8.64939664E-01
8.86388162E-01
9.02514800E-01
9.13509821E-01
9.19843573E-01
9.21905520E-01
9.19845059E-01
9.13513743E-01
9.02505527E-01
8.86388123E-01
8.64947220E-01
8.38518537E-01
8.07970782E-01
7.74490136E-01
7.38973299E-01
7.02100118E-01
6.64111288E-01
6.24823140E-01
5.83336306E-01
5.36714220E-01
4.64173923E-01
9.23938426E-01
9.29867133E-01
9.39173959E-01
9.50873748E-01
9.63580748E-01
9.75756622E-01
9.86094734E-01
9.93773112E-01
9.98440748E-01
1.00000000E+00
9.98441077E-01
9.93774557E-01
9.86100775E-01
9.75767442E-01
9.63596453E-01
9.50889397E-01
9.39186746E-01
9.29874327E-01
9.23942838E-01
-3.20435952E-16
-2.71619749E-16
-1.64222748E-16
-4.48487005E-16
-3.98986399E-16
-1.72604986E-16
-3.36292409E-16
-2.16840434E-16
-5.64327231E-16
-4.89734121E-16
-4.35957694E-16
-2.30552204E-16
-4.92932518E-16
-1.99493200E-16
-3.95083272E-16
-4.32813507E-16
6.76743628E-02
1.08684765E-01
1.47433911E-01
1.85693644E-01
2.24023536E-01
2.62801515E-01
3.02500556E-01
3.44191345E-01
3.91076823E-01
3.90495096E-01
3.44190370E-01
3.02464511E-01
2.62787627E-01
2.24030954E-01
1.85687738E-01
1.47427809E-01
1.08632927E-01
6.70877059E-02
1.00000000E+00
1.00000000E+00
1.00000000E+00
1.00000000E+00
1.00000000E+00
1.00000000E+00
1.00000000E+00
1.00000000E+00
1.00000000E+00
1.00000000E+00
1.00000000E+00
1.00000000E+00
1.00000000E+00
8.84224516E-01
8.30940882E-01
7.86988351E-01
7.46455575E-01
7.07658075E-01
6.70026367E-01
6.33529152E-01
5.98525633E-01
5.65724835E-01
5.36100085E-01
5.10718939E-01
4.90413354E-01
4.75723988E-01
4.66869341E-01
4.60962464E-01
4.52110271E-01
4.37420028E-01
4.17133782E-01
3.91764026E-01
3.62204263E-01
3.29522671E-01
2.94744563E-01
2.58668451E-01
2.21824552E-01
1.84507726E-01
1.46784736E-01
1.08301994E-01
6.73361462E-02
4.60962539E-01
4.52110466E-01
4.37419850E-01
4.17140356E-01
3.91774806E-01
3.62215860E-01
3.29532497E-01
2.94751507E-01
2.58672701E-01
2.21826562E-01
1.84507210E-01
1.46778868E-01
1.08281338E-01
6.71066954E-02
4.63916017E-01
4.66869628E-01
4.75723181E-01
4.90421740E-01
5.10724301E-01
5.36109279E-01
5.65736283E-01
5.98534782E-01
6.33534805E-01
6.70028166E-01
7.07655577E-01
7.46446095E-01
7.86964413E-01
8.30879300E-01
8.83305026E-01
5.37166719E-01
5.83409174E-01
6.24849024E-01
6.64121485E-01
7.02099288E-01
7.38970818E-01
7.74481102E-01
8.07984281E-01
8.38507159E-01
8.64941287E-01
8.86387428E-01
9.02506109E-01
9.13508373E-01
9.19843133E-01
9.23940048E-01
9.29891520E-01
9.39188773E-01
9.50884554E-01
9.63582756E-01
9.75759289E-01
9.86091174E-01
9.93769423E-01
9.98440530E-01
-1.11022302E-16
-6.71121145E-17
-5.94833969E-16
-6.03372062E-16
-3.18321758E-16
-5.47061311E-16
-1.77592316E-16
6.75810493E-02
1.08676263E-01
1.47432321E-01
1.85690445E-01
2.24026593E-01
2.62787804E-01
3.02484648E-01
3.44127086E-01
3.90446409E-01
1.00000000E+00
1.00000000E+00
1.00000000E+00
1.00000000E+00
1.00000000E+00
1.00000000E+00
1.95419547E-02
9.90883345E-03
1.38416755E-02
1.64216359E-02
2.45596042E-02
8.99831685E-01
8.51036996E-01
4.60946347E-01
3.47096416E-01
9.97074349E-01
9.92605828E-01
9.81967356E-01
9.69990057E-01
9.56888591E-01
9.43925973E-01
9.32834833E-01
8.06687735E-01
7.65668699E-01
7.26447833E-01
6.88352231E-01
6.51210599E-01
6.15210588E-01
5.80891187E-01
5.21126141E-01
5.49124837E-01
5.20900067E-01
4.97510222E-01
4.80018020E-01
4.48752751E-01
4.30497435E-01
4.07028735E-01
3.78851832E-01
3.12902746E-01
2.77160692E-01
2.40511657E-01
2.03342764E-01
1.65840392E-01
1.28131006E-01
8.97789459E-02
5.27604059E-02
5.08537389E-02
4.09706502E-01
3.64209211E-01
3.22006167E-01
2.82026266E-01
2.43110649E-01
2.04734633E-01
1.66615756E-01
1.28640691E-01
9.06276201E-02
9.19047370E-01
9.10885656E-01
8.97404831E-01
8.78553828E-01
8.54135602E-01
8.24995131E-01
7.92414518E-01
7.57498606E-01
7.21094592E-01
6.83640582E-01
6.45221587E-01
6.05549570E-01
5.64087698E-01
9.89805086E-01
9.64668963E-01
9.86829748E-01
9.80319218E-01
4.36787345E-02
4.39614091E-02
3.37933603E-02
4.70063739E-01
4.87384418E-01
9.22972123E-01
3.66673562E-01
9.34527129E-01
9.64056092E-01
9.77637939E-01
5.61443438E-01
5.02139390E-01
3.98306151E-01
3.39306260E-01
3.00198925E-01
2.61654483E-01
2.23474146E-01
1.85522058E-01
1.47910147E-01
1.10950097E-01
9.22561312E-01
8.44724577E-01
8.12184377E-01
7.77169093E-01
7.40748751E-01
7.03515080E-01
6.65721219E-01
6.27412032E-01
5.88640809E-01
9.48583422E-01
5.29948644E-01
4.80662384E-01
4.64530712E-01
4.46901289E-01
4.25437361E-01
3.79032032E-01
3.32338314E-01
2.96404022E-01
2.59615811E-01
2.22380621E-01
1.84922403E-01
1.47540000E-01
1.10554572E-01
9.11062949E-01
8.95516604E-01
8.73195715E-01
8.22850962E-01
7.83252550E-01
7.44442916E-01
7.06270494E-01
6.68647893E-01
6.31668300E-01
5.95709281E-01
5.50101502E-01
8.62821420E-01
7.48664104E-02
7.54848733E-02
9.34170645E-01
9.56866431E-01
6.08259839E-02
8.99688559E-01
2.44048745E-02
8.35016531E-01
5.14237080E-01
4.17263917E-01
3.89563950E-01
4.76192331E-01
3.53984842E-01
3.16945138E-01
2.79431874E-01
2.41773851E-01
2.04088669E-01
1.66559390E-01
4.21487432E-01
4.47245529E-01
5.07152946E-01
5.39532719E-01
5.74413046E-01
6.11046421E-01
6.48425596E-01
6.86054512E-01
7.23732151E-01
8.97194780E-01
9.15362350E-01
7.61334992E-01
9.23777790E-01
7.98650466E-01
8.68831646E-01
9.35060230E-01
1.29514878E-01
9.36624286E-02
9.29725756E-01
4.51695022E-01
4.81400546E-01
4.63141030E-01
4.49641316E-01
9.25557618E-01
9.73267881E-01
4.60962646E-01
4.52109729E-01
4.37424073E-01
4.17116888E-01
3.91763677E-01
3.62206326E-01
3.29526096E-01
2.94747815E-01
2.58670927E-01
2.21826606E-01
1.84511761E-01
1.46786783E-01
1.08308193E-01
6.73831929E-02
1.09565467E-02
2.25497214E-02
1.55748603E-02
2.53989142E-02
2.82036626E-01
4.11460250E-01
8.50791121E-01
9.63055279E-01
5.28550484E-02
5.31320521E-02
9.06148953E-02
1.28580769E-01
1.66626180E-01
2.04743605E-01
2.43125626E-01
3.22019673E-01
3.64392539E-01
4.59614420E-01
4.47973838E-01
4.29965170E-01
4.06771018E-01
3.78791776E-01
3.47118107E-01
3.12937150E-01
2.77189691E-01
2.40530224E-01
2.03356072E-01
1.65861890E-01
1.28097838E-01
9.01938640E-02
8.99444628E-01
8.06686220E-01
7.65674024E-01
7.26444621E-01
6.88345507E-01
6.51200186E-01
6.15194682E-01
5.80863408E-01
5.49100475E-01
5.21062787E-01
4.97604260E-01
4.79791726E-01
9.97077396E-01
9.92603110E-01
9.89546737E-01
9.84969820E-01
9.77420113E-01
9.24194140E-01
9.32567987E-01
9.44078622E-01
9.57418623E-01
9.70668793E-01
9.82155384E-01
5.15767450E-01
5.63099964E-01
6.05417193E-01
6.45205243E-01
6.83641856E-01
7.21103392E-01
7.57517390E-01
7.92428690E-01
8.24969592E-01
8.54014786E-01
8.78348188E-01
8.97479686E-01
9.10807063E-01
4.67261207E-02
3.74937816E-02
9.12331543E-03
4.65428401E-01
4.62512880E-01
9.17810723E-01
5.02259461E-01
2.22425462E-01
3.32426592E-01
4.80938642E-01
3.66677800E-01
2.96499165E-01
2.59680175E-01
1.84955095E-01
1.47454621E-01
1.10756781E-01
9.11210958E-01
9.34788086E-01
9.78849282E-01
5.48130454E-01
5.88211035E-01
6.27342962E-01
6.65718426E-01
7.03532121E-01
7.40785551E-01
7.77198276E-01
8.12145815E-01
8.44452217E-01
8.72631643E-01
4.46770555E-01
4.25462235E-01
3.98093534E-01
3.79388722E-01
3.39501677E-01
3.00298794E-01
2.61715536E-01
2.23508929E-01
1.85538826E-01
1.47781509E-01
1.11037711E-01
5.61206872E-01
5.29614620E-01
4.63928837E-01
9.48878678E-01
8.95408552E-01
9.67247609E-01
5.95587144E-01
6.31633613E-01
6.68638616E-01
7.06274044E-01
7.44465800E-01
7.83266952E-01
8.22667006E-01
9.22218039E-01
8.62364304E-01
7.69405681E-02
7.61990320E-02
9.34107307E-01
6.35702496E-02
9.29151064E-01
8.34710978E-01
4.17920086E-01
5.07880995E-01
4.79830570E-01
4.21214984E-01
3.89509965E-01
3.54110769E-01
3.17081832E-01
5.37852956E-01
5.73676234E-01
6.10817635E-01
6.48371502E-01
6.86051637E-01
7.23756750E-01
7.61368766E-01
7.98593542E-01
5.05448046E-01
4.50883538E-01
2.79527943E-01
2.41834340E-01
2.04121899E-01
8.96846208E-01
1.66490491E-01
9.15618457E-01
8.68422252E-01
9.34851525E-01
9.53664928E-01
1.29574950E-01
8.99302902E-01
9.46857683E-02
4.75186908E-01
4.45136224E-01
4.64480319E-01
9.23778211E-01
5.07242954E-02
2.48457020E-02
4.69029014E-01
8.82469339E-01
8.30814644E-01
7.86967726E-01
7.46446965E-01
7.07653526E-01
6.70025263E-01
6.33530898E-01
5.98530870E-01
5.65733172E-01
5.36133275E-01
5.10721111E-01
4.90412527E-01
4.75724695E-01
4.66869381E-01
4.67549697E-01
4.91275768E-01
4.68574993E-01
4.45362785E-01
4.61736038E-01
4.34140811E-01
5.23822868E-01
5.39779779E-01
5.02403049E-01
5.12010552E-01
4.59959104E-01
4.63695826E-01
9.20088946E-01
9.12900231E-01
9.18379086E-01
9.92583986E-01
9.77971867E-01
4.61269725E-01
4.48363062E-01
4.72050824E-01
4.10653729E-01
4.15736156E-01
4.05935092E-01
3.93309470E-01
3.82792703E-01
9.89413536E-01
4.89967319E-01
4.76466193E-01
9.08962459E-01
9.43543145E-01
9.16536120E-01
9.25619197E-01
8.86440896E-01
4.29938781E-01
4.38071210E-01
9.90239561E-01
9.78272915E-01
9.67533623E-01
1.49666678E-02
1.31163091E-02
4.03169474E-02
2.70597038E-02
8.51127196E-03
8.97420169E-01
8.86593138E-01
9.03664682E-01
9.83284784E-01
2.37784432E-02
7.01991796E-02
4.83956018E-02
1.19958078E-02
2.30415260E-02
7.80050015E-01
2.94472711E-02
4.56167126E-01
9.42360813E-01
6.21540421E-03
1.87074533E-02
1.69552508E-02
9.17042370E-01
9.27928134E-01
9.29405341E-01
9.05381086E-01
5.97790160E-01
6.13526848E-01
5.78256801E-01
5.64614068E-01
7.85878465E-01
7.63753716E-01
3.63298427E-01
4.75726097E-01
9.22161340E-01
9.25636140E-01
5.09552913E-01
4.36282841E-01
4.94439007E-01
6.33038697E-01
6.50074820E-01
6.29674715E-01
9.56736714E-01
1.29319978E-01
1.11816199E-01
1.47960733E-01
1.66583754E-01
1.40977504E-01
2.78100935E-01
2.58991586E-01
2.41083804E-01
2.95246729E-01
7.59106127E-01
7.22228022E-01
7.30939779E-01
4.04856810E-02
9.38150442E-01
9.50323109E-01
9.56586262E-01
8.09052405E-01
7.94899953E-01
5.92495233E-01
5.69092653E-01
5.51458437E-01
6.08047759E-01
4.71958844E-01
1.29064093E-01
9.30629034E-02
1.09294096E-01
6.84679570E-01
6.64546818E-01
6.95920282E-01
6.46629743E-01
6.67236860E-01
8.75255245E-01
8.81938265E-01
8.42800968E-01
9.64131295E-01
9.76364338E-01
8.59329085E-01
8.52266758E-01
5.62857644E-02
5.41832633E-01
5.85025160E-01
8.66891932E-01
8.46787306E-01
6.25546377E-01
8.28749690E-01
8.16990518E-01
9.18474459E-01
8.28208934E-01
1.84579266E-01
2.03696318E-01
1.66182763E-01
2.22041083E-01
7.04916732E-01
7.42579763E-01
7.25268821E-01
3.30302107E-01
3.14602615E-01
3.49857723E-01
5.18260667E-01
5.26610929E-01
7.65376375E-01
8.55348531E-02
1.47043092E-01
6.87407645E-01
7.07275230E-01
6.86509474E-02
2.22963192E-01
2.42589204E-01
2.60643081E-01
2.04512583E-01
1.85256622E-01
9.95908029E-01
3.19715722E-01
3.39169249E-01
2.94589462E-01
3.35670340E-01
3.59276601E-01
3.72018303E-01
3.98849669E-01
1.75363249E-01
2.23931961E-01
6.69656180E-01
8.02951954E-01
2.61046118E-01
2.80878608E-01
3.86977940E-01
2.98283543E-01
7.45881702E-01
1.01149208E-01
7.27173945E-02
4.80371417E-01
4.84054881E-01
4.72035959E-01
4.72172832E-01
4.68140228E-01
4.79689576E-01
4.74066378E-01
4.85657444E-01
4.73991002E-01
4.56748340E-01
4.46253239E-01
4.55289182E-01
4.56950492E-01
4.58288670E-01
4.52008336E-01
4.47417271E-01
4.64972230E-01
4.53258723E-01
4.57313229E-01
4.39565450E-01
4.68754958E-01
4.71124719E-01
4.60482108E-01
4.60248884E-01
4.58887406E-01
4.65659054E-01
5.30143146E-01
5.38700117E-01
5.31669888E-01
5.44543467E-01
5.36004277E-01
5.42799128E-01
5.17309934E-01
5.10720970E-01
5.17313849E-01
5.22831167E-01
5.22829560E-01
5.12592640E-01
5.11222846E-01
5.22386331E-01
5.16562316E-01
5.18151292E-01
5.07226911E-01
5.06773817E-01
5.17311133E-01
5.10722825E-01
5.06770890E-01
5.35993015E-01
5.44527347E-01
5.42794732E-01
5.30137372E-01
5.22828067E-01
5.22824729E-01
4.63072006E-01
4.64496543E-01
4.62155771E-01
4.62133084E-01
4.60210753E-01
4.62695853E-01
5.36117975E-01
5.42801319E-01
9.19703417E-01
9.18658362E-01
9.19051054E-01
9.15359253E-01
9.16892215E-01
9.17227527E-01
9.19596171E-01
9.22196030E-01
9.22438033E-01
9.24065607E-01
9.21712008E-01
9.21444016E-01
9.15357562E-01
9.12684896E-01
9.15586970E-01
9.17130038E-01
9.16895625E-01
9.17955618E-01
9.19248747E-01
9.15656709E-01
9.19702758E-01
9.19127112E-01
9.21067531E-01
9.92376590E-01
9.91190173E-01
9.91219302E-01
9.95302373E-01
9.96517818E-01
9.95761489E-01
9.17231386E-01
9.15995800E-01
9.18665955E-01
9.16343005E-01
9.72326540E-01
9.74276956E-01
9.79214996E-01
9.67992653E-01
9.65954101E-01
9.59785711E-01
4.55282374E-01
4.60335688E-01
4.55210648E-01
4.55059476E-01
4.48558198E-01
4.55113780E-01
4.60210736E-01
4.62133000E-01
4.62599788E-01
4.60413742E-01
4.60442034E-01
4.49641406E-01
4.48169053E-01
4.49812994E-01
4.56018411E-01
4.54909095E-01
4.55460209E-01
4.59771325E-01
4.59888392E-01
4.60210893E-01
4.57271886E-01
4.54947306E-01
4.65582550E-01
4.66916761E-01
4.68228756E-01
4.63143222E-01
4.62695705E-01
4.15762818E-01
4.34504227E-01
4.28961600E-01
4.40335414E-01
4.21058814E-01
4.27447119E-01
4.34473909E-01
4.15553352E-01
4.27385292E-01
4.04483392E-01
4.07381645E-01
4.13118848E-01
4.20484051E-01
4.18364938E-01
4.12540262E-01
4.08287158E-01
4.13719965E-01
4.09012831E-01
4.04396191E-01
4.01588434E-01
4.01249220E-01
3.95417148E-01
3.90689419E-01
3.97025977E-01
3.87972916E-01
3.95286025E-01
4.07286640E-01
4.04674339E-01
9.89098696E-01
9.87271885E-01
9.91083021E-01
9.91397822E-01
9.92883942E-01
9.90297419E-01
4.91338944E-01
4.90413418E-01
4.91341064E-01
4.96362471E-01
4.96387346E-01
4.96363075E-01
4.83464953E-01
4.83466371E-01
4.82601968E-01
4.99890765E-01
4.99891551E-01
4.90194239E-01
4.85556574E-01
4.96363117E-01
4.90417031E-01
4.85557622E-01
4.99890855E-01
4.99891428E-01
9.83990782E-01
9.85882848E-01
9.87809158E-01
4.84564451E-01
4.93876902E-01
5.00025763E-01
4.87992124E-01
5.11297561E-01
5.22467261E-01
5.16160808E-01
4.74142742E-01
4.76526732E-01
4.74081448E-01
4.75724354E-01
4.74081789E-01
4.76527107E-01
5.16643981E-01
9.26392204E-01
9.37095582E-01
9.18766742E-01
9.23738758E-01
9.12156453E-01
9.32284488E-01
9.36764337E-01
9.18589581E-01
9.26984123E-01
9.18370285E-01
9.33367018E-01
4.70560614E-01
4.69278351E-01
4.70560340E-01
9.03217740E-01
9.05694598E-01
9.12837867E-01
9.23497475E-01
9.05473374E-01
9.03026525E-01
9.12471044E-01
8.91877106E-01
8.98090784E-01
8.99839486E-01
8.91719388E-01
4.39792093E-01
4.42508200E-01
4.33555760E-01
4.37422106E-01
4.33556008E-01
4.42509456E-01
4.23035860E-01
4.11283332E-01
4.19182257E-01
4.19438997E-01
4.30179136E-01
4.23444526E-01
4.19068301E-01
4.19027290E-01
4.29915875E-01
4.23185666E-01
4.23449379E-01
4.11681797E-01
4.40019289E-01
4.43545376E-01
4.33705036E-01
4.43772358E-01
4.11162447E-01
4.11686465E-01
4.23442186E-01
4.15457578E-01
4.33366818E-01
4.33556962E-01
4.27951514E-01
4.43321642E-01
4.39561270E-01
4.42300850E-01
4.37422181E-01
4.42300817E-01
9.95353809E-01
9.94402034E-01
9.89910796E-01
9.88429002E-01
9.88578054E-01
9.93885962E-01
9.79079968E-01
9.90814085E-01
9.88288870E-01
9.92675337E-01
9.82698294E-01
9.84092306E-01
9.90786230E-01
1.00000000E+00
9.88238991E-01
9.84609073E-01
9.94403785E-01
9.94415417E-01
1.00000000E+00
9.88245962E-01
9.87615691E-01
9.92868030E-01
9.95339983E-01
1.00000000E+00
9.91461284E-01
9.90589225E-01
9.78001984E-01
9.90506808E-01
9.72493585E-01
9.73509245E-01
9.68779512E-01
9.67178506E-01
9.65864733E-01
9.71083486E-01
6.37140553E-03
7.40298497E-03
1.61952499E-02
9.88383616E-03
7.38082584E-03
-4.82686807E-16
1.75217814E-02
3.11895908E-02
2.51172437E-02
3.33021907E-02
2.05960546E-02
2.55233516E-02
1.24103768E-02
1.12324532E-02
1.40452835E-02
2.22058555E-02
1.67062918E-02
2.67266838E-02
2.70304500E-02
2.16630204E-02
3.47726187E-02
4.21059924E-02
2.85316194E-02
8.99798733E-01
8.99616662E-01
8.97414491E-01
8.91597760E-01
8.91847416E-01
8.95112394E-01
8.88637064E-01
8.88647442E-01
8.82035571E-01
8.97377413E-01
8.91556729E-01
8.91846621E-01
8.82126126E-01
8.88736456E-01
8.88685101E-01
8.92149141E-01
8.82483586E-01
8.82126661E-01
8.91844083E-01
8.85354073E-01
9.04672379E-01
9.11870049E-01
9.05922417E-01
9.08711606E-01
9.00267815E-01
9.07451598E-01
8.99581199E-01
8.99796879E-01
8.95111842E-01
9.07493822E-01
9.11907595E-01
9.04713672E-01
9.07453068E-01
8.99797395E-01
9.02506181E-01
9.07452337E-01
9.95844925E-01
1.00000000E+00
9.91487593E-01
9.89359733E-01
9.90747232E-01
9.91081007E-01
9.96514292E-01
9.95135873E-01
9.94452152E-01
9.95761877E-01
9.91092139E-01
9.86550918E-01
9.86203148E-01
9.84640543E-01
9.94407656E-01
1.00000000E+00
1.00000000E+00
9.95850061E-01
9.94211248E-01
9.88030090E-01
9.89745456E-01
9.86446577E-01
9.87462474E-01
9.83889147E-01
9.95846745E-01
9.95356686E-01
1.00000000E+00
1.59269140E-02
1.96628173E-02
2.50545981E-02
3.72256797E-02
3.78933007E-02
3.53551305E-02
4.40397681E-01
4.42716000E-01
4.33609809E-01
4.62478083E-02
6.14990270E-02
5.06748420E-02
3.69385058E-02
5.85206088E-02
9.68445514E-03
9.89321732E-03
2.18004519E-02
9.89452196E-03
9.51588299E-03
-6.73940070E-16
1.57550476E-02
1.62704590E-02
3.12250226E-17
3.67301342E-02
6.03409538E-02
4.96638814E-02
3.24252324E-02
-5.86336535E-16
1.53682820E-02
3.34205623E-02
1.70755441E-02
1.56533185E-02
2.16500945E-02
2.43461809E-02
1.79624835E-02
7.81659211E-01
7.91236174E-01
7.89373268E-01
7.80060604E-01
7.70705397E-01
7.72104116E-01
4.51436065E-02
5.82626018E-02
4.16561715E-02
3.44637596E-02
1.74228370E-02
3.88266223E-02
2.12656183E-02
3.56827306E-02
1.99190447E-02
1.10252153E-02
7.15070786E-03
7.19030265E-03
1.07765643E-02
-8.58688121E-17
2.71147716E-02
1.93092817E-02
3.27566028E-02
2.61245087E-02
1.09323250E-02
-3.25260652E-16
1.78345213E-02
8.82725037E-01
9.20091528E-01
9.24280775E-01
9.31076645E-01
8.95274599E-01
8.97720712E-01
5.19598153E-02
3.50367353E-02
3.64554804E-02
4.56431972E-02
4.62678044E-02
4.46997910E-01
4.51435379E-01
4.51709358E-01
4.47369921E-01
4.42276611E-01
4.47532127E-01
4.42386895E-01
4.51739965E-01
4.51833703E-01
4.99977278E-01
4.94317145E-01
4.99892786E-01
5.06772323E-01
5.04490512E-01
4.51635434E-01
4.59015526E-01
9.87766300E-01
1.00000000E+00
1.00000000E+00
9.75771213E-01
9.76277651E-01
9.80264445E-01
4.55723640E-01
4.61020822E-01
4.39704363E-01
4.33921333E-01
9.42835298E-01
9.38907854E-01
9.38677582E-01
9.45222587E-01
9.50820316E-01
9.48801779E-01
4.49983068E-01
4.49984345E-01
4.52110030E-01
4.45486566E-01
4.45486815E-01
4.49812834E-01
1.00668058E-02
1.65104143E-02
1.19309002E-02
1.83816498E-02
1.16358706E-02
1.53937601E-02
6.18650731E-03
3.03208633E-03
4.92220432E-03
8.11261540E-03
1.25268371E-02
1.36882262E-02
7.66694527E-03
1.30297507E-02
-4.75747913E-16
3.01962514E-03
2.16840434E-17
3.12351389E-03
-1.59160879E-16
8.17905501E-03
3.12948160E-03
4.62594324E-03
4.54479111E-03
-5.50774704E-16
4.53143478E-03
9.23537735E-01
9.25180116E-01
9.19949904E-01
9.20185816E-01
9.17594688E-01
9.23080241E-01
9.25319289E-01
9.23376746E-01
9.26676028E-01
9.20391346E-01
9.22801948E-01
9.11818880E-01
9.04032862E-01
9.10185251E-01
9.07395712E-01
9.14085540E-01
9.08468612E-01
6.05642604E-01
6.04510768E-01
5.96852971E-01
5.86861116E-01
5.88272347E-01
5.95680782E-01
6.14485416E-01
6.06434455E-01
6.05586399E-01
5.81799566E-01
5.89872902E-01
5.73416036E-01
5.89873444E-01
5.81802817E-01
5.98531539E-01
4.64294086E-01
4.63860965E-01
4.63177659E-01
5.97768391E-01
6.06936218E-01
6.06940773E-01
5.89252240E-01
5.72651952E-01
5.80883122E-01
5.71434209E-01
5.79767007E-01
5.89265124E-01
5.72666458E-01
5.65460532E-01
5.81569743E-01
5.73424692E-01
2.09336030E-02
1.19011137E-02
1.52259909E-02
1.27654676E-02
2.18686682E-02
1.63656181E-02
4.65655204E-03
5.71314456E-03
7.90333215E-03
1.81350006E-02
1.28537211E-02
1.75931173E-02
1.00726529E-02
-4.94396191E-16
1.22846898E-02
9.10507841E-03
5.70604146E-03
-3.66894015E-16
1.00000000E+00
9.96516343E-01
1.00000000E+00
1.00000000E+00
7.75709726E-01
7.64818184E-01
7.74709593E-01
7.73487569E-01
7.84707426E-01
7.74725443E-01
4.00317973E-01
4.11814916E-01