# vtk DataFile Version 1.0
ECM-CELL DIFFUSION-MECHANICS
ASCII

DATASET UNSTRUCTURED_GRID
POINTS     2723 float
1.50000000E+01 3.00000000E+01 0.00000000E+00
-5.00000000E+00 3.00000000E+01 0.00000000E+00
5.00000000E+00 2.00000000E+01 0.00000000E+00
5.00000000E+00 -1.00000000E+01 0.00000000E+00
-2.50000000E+01 -1.00000000E+01 0.00000000E+00
-2.69134178E+01 -9.61939812E+00 0.00000000E+00
-2.85355339E+01 -8.53553391E+00 0.00000000E+00
-2.96193981E+01 -6.91341734E+00 0.00000000E+00
-3.00000000E+01 -5.00000000E+00 0.00000000E+00
-2.96193981E+01 -3.08658290E+00 0.00000000E+00
-2.85355339E+01 -1.46446609E+00 0.00000000E+00
-2.69134178E+01 -3.80602330E-01 0.00000000E+00
-2.50000000E+01 0.00000000E+00 0.00000000E+00
-5.00000000E+00 0.00000000E+00 0.00000000E+00
1.30000000E+01 3.00000000E+01 0.00000000E+00
1.10000000E+01 3.00000000E+01 0.00000000E+00
9.00000000E+00 3.00000000E+01 0.00000000E+00
7.00000000E+00 3.00000000E+01 0.00000000E+00
5.00000000E+00 3.00000000E+01 0.00000000E+00
3.00000000E+00 3.00000000E+01 0.00000000E+00
1.00000000E+00 3.00000000E+01 0.00000000E+00
-1.00000000E+00 3.00000000E+01 0.00000000E+00
-3.00000000E+00 3.00000000E+01 0.00000000E+00
6.42857122E+00 2.14285717E+01 0.00000000E+00
7.85714293E+00 2.28571434E+01 0.00000000E+00
9.28571415E+00 2.42857151E+01 0.00000000E+00
1.07142859E+01 2.57142849E+01 0.00000000E+00
1.21428576E+01 2.71428566E+01 0.00000000E+00
1.35714283E+01 2.85714283E+01 0.00000000E+00
5.00000000E+00 1.80000000E+01 0.00000000E+00
5.00000000E+00 1.60000000E+01 0.00000000E+00
5.00000000E+00 1.40000000E+01 0.00000000E+00
5.00000000E+00 1.20000000E+01 0.00000000E+00
5.00000000E+00 1.00000000E+01 0.00000000E+00
5.00000000E+00 8.00000000E+00 0.00000000E+00
5.00000000E+00 6.00000000E+00 0.00000000E+00
5.00000000E+00 4.00000000E+00 0.00000000E+00
5.00000000E+00 2.00000000E+00 0.00000000E+00
5.00000000E+00 0.00000000E+00 0.00000000E+00
5.00000000E+00 -2.00000000E+00 0.00000000E+00
5.00000000E+00 -4.00000000E+00 0.00000000E+00
5.00000000E+00 -6.00000000E+00 0.00000000E+00
5.00000000E+00 -8.00000000E+00 0.00000000E+00
3.00000000E+00 -1.00000000E+01 0.00000000E+00
1.00000000E+00 -1.00000000E+01 0.00000000E+00
-1.00000000E+00 -1.00000000E+01 0.00000000E+00
-3.00000000E+00 -1.00000000E+01 0.00000000E+00
-5.00000000E+00 -1.00000000E+01 0.00000000E+00
-7.00000000E+00 -1.00000000E+01 0.00000000E+00
-9.00000000E+00 -1.00000000E+01 0.00000000E+00
-1.10000000E+01 -1.00000000E+01 0.00000000E+00
-1.30000000E+01 -1.00000000E+01 0.00000000E+00
-1.50000000E+01 -1.00000000E+01 0.00000000E+00
-1.70000000E+01 -1.00000000E+01 0.00000000E+00
-1.90000000E+01 -1.00000000E+01 0.00000000E+00
-2.10000000E+01 -1.00000000E+01 0.00000000E+00
-2.30000000E+01 -1.00000000E+01 0.00000000E+00
-7.00000000E+00 0.00000000E+00 0.00000000E+00
-9.00000000E+00 0.00000000E+00 0.00000000E+00
-1.10000000E+01 0.00000000E+00 0.00000000E+00
-1.30000000E+01 0.00000000E+00 0.00000000E+00
-1.50000000E+01 0.00000000E+00 0.00000000E+00
-1.70000000E+01 0.00000000E+00 0.00000000E+00
-1.90000000E+01 0.00000000E+00 0.00000000E+00
-2.10000000E+01 0.00000000E+00 0.00000000E+00
-2.30000000E+01 0.00000000E+00 0.00000000E+00
-5.00000000E+00 2.80000000E+01 0.00000000E+00
-5.00000000E+00 2.60000000E+01 0.00000000E+00
-5.00000000E+00 2.40000000E+01 0.00000000E+00
-5.00000000E+00 2.20000000E+01 0.00000000E+00
-5.00000000E+00 2.00000000E+01 0.00000000E+00
-5.00000000E+00 1.80000000E+01 0.00000000E+00
-5.00000000E+00 1.60000000E+01 0.00000000E+00
-5.00000000E+00 1.40000000E+01 0.00000000E+00
-5.00000000E+00 1.20000000E+01 0.00000000E+00
-5.00000000E+00 1.00000000E+01 0.00000000E+00
-5.00000000E+00 8.00000000E+00 0.00000000E+00
-5.00000000E+00 6.00000000E+00 0.00000000E+00
-5.00000000E+00 4.00000000E+00 0.00000000E+00
-5.00000000E+00 2.00000000E+00 0.00000000E+00
-2.59871254E+01 -7.91282892E+00 0.00000000E+00
-2.72089272E+01 -7.22517633E+00 0.00000000E+00
-2.66474552E+01 -5.39335680E+00 0.00000000E+00
-2.69874706E+01 -4.19447088E+00 0.00000000E+00
3.56631780E+00 1.81858082E+01 0.00000000E+00
3.45538449E+00 1.60969982E+01 0.00000000E+00
-8.99606419E+00 -8.32854271E+00 0.00000000E+00
1.15325785E+01 2.76091194E+01 0.00000000E+00
8.69346333E+00 2.86210556E+01 0.00000000E+00
6.79735470E+00 2.83068199E+01 0.00000000E+00
4.81789303E+00 2.81218548E+01 0.00000000E+00
2.81581450E+00 2.80152245E+01 0.00000000E+00
8.33386540E-01 2.80571632E+01 0.00000000E+00
3.39765048E+00 1.40790730E+01 0.00000000E+00
3.36072111E+00 1.20805902E+01 0.00000000E+00
3.33418083E+00 1.00849323E+01 0.00000000E+00
3.31360078E+00 8.08838463E+00 0.00000000E+00
3.29503798E+00 6.08961487E+00 0.00000000E+00
3.27511024E+00 4.08798981E+00 0.00000000E+00
3.24555063E+00 2.08999419E+00 0.00000000E+00
-3.39916706E+00 1.91835046E-01 0.00000000E+00
3.19515896E+00 7.99414515E-02 0.00000000E+00
3.08858156E+00 -1.95740485E+00 0.00000000E+00
2.94115114E+00 -4.00789595E+00 0.00000000E+00
2.95735145E+00 -6.02382755E+00 0.00000000E+00
2.99156761E+00 -8.02272415E+00 0.00000000E+00
-3.03548622E+00 -8.25239944E+00 0.00000000E+00
-5.03107357E+00 -8.30240726E+00 0.00000000E+00
-7.01400518E+00 -8.32370090E+00 0.00000000E+00
-1.09846535E+01 -8.33255196E+00 0.00000000E+00
-1.29763451E+01 -8.34380913E+00 0.00000000E+00
-1.49628611E+01 -8.35872173E+00 0.00000000E+00
-1.69386921E+01 -8.37445927E+00 0.00000000E+00
-1.88995705E+01 -8.38477707E+00 0.00000000E+00
-2.08368797E+01 -8.38374519E+00 0.00000000E+00
-2.27050743E+01 -8.35194588E+00 0.00000000E+00
-2.44529305E+01 -1.81291687E+00 0.00000000E+00
-2.44611835E+01 -8.25364876E+00 0.00000000E+00
-7.03477573E+00 -1.61946285E+00 0.00000000E+00
-9.00131798E+00 -1.63337088E+00 0.00000000E+00
-1.09891205E+01 -1.64573705E+00 0.00000000E+00
-1.29806490E+01 -1.65276051E+00 0.00000000E+00
-1.49665661E+01 -1.65118086E+00 0.00000000E+00
-1.69362106E+01 -1.64144766E+00 0.00000000E+00
-1.88823471E+01 -1.62573457E+00 0.00000000E+00
-2.07968693E+01 -1.61687005E+00 0.00000000E+00
-2.26661606E+01 -1.65481305E+00 0.00000000E+00
-3.14961743E+00 2.61050987E+01 0.00000000E+00
-3.21332860E+00 2.41569138E+01 0.00000000E+00
-3.23101664E+00 2.21709061E+01 0.00000000E+00
-3.19988894E+00 2.01672287E+01 0.00000000E+00
-3.19480872E+00 1.81522160E+01 0.00000000E+00
-3.22400498E+00 1.61377392E+01 0.00000000E+00
-3.26183391E+00 1.41241846E+01 0.00000000E+00
-3.29545403E+00 1.21142969E+01 0.00000000E+00
-3.32145929E+00 1.01066618E+01 0.00000000E+00
-3.34261227E+00 8.10189915E+00 0.00000000E+00
-3.36075759E+00 6.10010099E+00 0.00000000E+00
-3.37989211E+00 4.10786200E+00 0.00000000E+00
-3.39658475E+00 2.12506461E+00 0.00000000E+00
9.87431145E+00 2.69113979E+01 0.00000000E+00
5.55943680E+00 2.24666195E+01 0.00000000E+00
8.27692127E+00 2.52841549E+01 0.00000000E+00
1.21497765E+01 2.87516937E+01 0.00000000E+00
7.00510788E+00 2.38013420E+01 0.00000000E+00
-2.55711937E+01 -3.71893096E+00 0.00000000E+00
-2.53829994E+01 -6.46415377E+00 0.00000000E+00
-3.41579247E+00 -1.53762901E+00 0.00000000E+00
-3.08106852E+00 2.80612659E+01 0.00000000E+00
-8.99859238E+00 -6.65214443E+00 0.00000000E+00
-1.29351008E+00 2.61693573E+01 0.00000000E+00
6.86967373E+00 2.63770676E+01 0.00000000E+00
1.54031169E+00 2.17246723E+00 0.00000000E+00
1.31703186E+00 -1.76688719E+00 0.00000000E+00
-5.08228636E+00 -6.62115431E+00 0.00000000E+00
-9.00249004E+00 -3.29739213E+00 0.00000000E+00
-1.09824476E+01 -3.30994868E+00 0.00000000E+00
-1.29688711E+01 -3.32068324E+00 0.00000000E+00
-1.49453335E+01 -3.32586026E+00 0.00000000E+00
-1.68954639E+01 -3.31989431E+00 0.00000000E+00
-1.88051834E+01 -3.30147409E+00 0.00000000E+00
-2.24104786E+01 -3.31642485E+00 0.00000000E+00
-1.47017288E+00 2.42874813E+01 0.00000000E+00
4.75124407E+00 2.61952667E+01 0.00000000E+00
-1.41161871E+00 2.03558025E+01 0.00000000E+00
-1.41152394E+00 1.82831421E+01 0.00000000E+00
-1.47984684E+00 1.62193718E+01 0.00000000E+00
-1.55269098E+00 1.41849861E+01 0.00000000E+00
-1.61183786E+00 1.21700039E+01 0.00000000E+00
-1.65644002E+00 1.01618252E+01 0.00000000E+00
-1.69045985E+00 8.15654087E+00 0.00000000E+00
-1.74818420E+00 4.17103720E+00 0.00000000E+00
2.63595510E+00 2.58476467E+01 0.00000000E+00
5.85341334E-01 2.61480026E+01 0.00000000E+00
1.48443735E+00 1.99812949E-01 0.00000000E+00
7.22676218E-01 -3.93087220E+00 0.00000000E+00
-1.02083135E+00 -8.16479301E+00 0.00000000E+00
-7.03490305E+00 -6.64700460E+00 0.00000000E+00
-1.09789371E+01 -6.66079235E+00 0.00000000E+00
-1.29644680E+01 -6.67540455E+00 0.00000000E+00
-1.49419928E+01 -6.69405699E+00 0.00000000E+00
-1.68996048E+01 -6.70987225E+00 0.00000000E+00
-1.88245621E+01 -6.71467447E+00 0.00000000E+00
-2.06824856E+01 -6.69600010E+00 0.00000000E+00
-2.06575108E+01 -3.28913999E+00 0.00000000E+00
-2.24377365E+01 -6.66452074E+00 0.00000000E+00
-1.53943622E+00 2.23406563E+01 0.00000000E+00
1.86250246E+00 1.61861019E+01 0.00000000E+00
1.77246237E+00 1.41486263E+01 0.00000000E+00
1.71115601E+00 1.21418839E+01 0.00000000E+00
1.66675675E+00 1.01430874E+01 0.00000000E+00
1.63350880E+00 8.14535809E+00 0.00000000E+00
1.60673702E+00 6.14654064E+00 0.00000000E+00
-1.71792471E+00 6.15320969E+00 0.00000000E+00
1.58160424E+00 4.14921808E+00 0.00000000E+00
-1.77281892E+00 2.20080662E+00 0.00000000E+00
2.01078510E+00 1.82713623E+01 0.00000000E+00
-2.40447159E+01 -6.61500549E+00 0.00000000E+00
-2.40787086E+01 -3.44673610E+00 0.00000000E+00
3.91073895E+00 2.06671638E+01 0.00000000E+00
4.69771385E+00 2.40344315E+01 0.00000000E+00
2.23431134E+00 2.02954235E+01 0.00000000E+00
-2.63834591E+01 -6.32643604E+00 0.00000000E+00
2.15098262E-01 1.62336769E+01 0.00000000E+00
-5.16005945E+00 -3.28352356E+00 0.00000000E+00
9.15533721E-01 -6.09541035E+00 0.00000000E+00
-3.12387347E+00 -6.53723431E+00 0.00000000E+00
-5.13622618E+00 -4.95174408E+00 0.00000000E+00
-9.00362396E+00 -4.97516680E+00 0.00000000E+00
-1.09809561E+01 -4.98574305E+00 0.00000000E+00
-1.29646101E+01 -4.99896383E+00 0.00000000E+00
-1.49383945E+01 -5.01089621E+00 0.00000000E+00
-1.75341535E+00 -3.10992193E+00 0.00000000E+00
-7.05302477E+00 -4.96985292E+00 0.00000000E+00
[...]
POINT_DATA     2723
SCALARS Ux float
LOOKUP_TABLE default
1.00000000E+00
9.22312441E-01
1.00000000E+00
4.64209564E-01
4.81385765E-17
5.29090660E-17
-3.23092247E-17
1.19479079E-16
-1.41813644E-16
-1.11455983E-16
-1.79977561E-16
2.53703308E-16
2.78856799E-16
4.64106234E-01
9.98452950E-01
9.93813518E-01
9.86184194E-01
9.75917470E-01
9.63812207E-01
9.51167443E-01
9.39522628E-01
9.30254638E-01
9.24339566E-01
1.00000000E+00
1.00000000E+00
1.00000000E+00
1.00000000E+00
1.00000000E+00
1.00000000E+00
8.83694948E-01
8.32436663E-01
7.87525123E-01
7.47092702E-01
7.08208872E-01
6.70546707E-01
6.34012365E-01
5.98975576E-01
5.66141297E-01
5.36489109E-01
5.11067049E-01
4.90737900E-01
4.76029107E-01
4.67166148E-01
4.61253030E-01
4.52390784E-01
4.37686083E-01
4.17371228E-01
3.91980348E-01
3.62389126E-01
3.29673031E-01
2.94860055E-01
2.58749209E-01
2.21875498E-01
1.84512310E-01
1.46812654E-01
1.07936889E-01
6.79235247E-02
3.90321970E-01
3.44584913E-01
3.02565562E-01
2.62879887E-01
2.24066931E-01
1.85677304E-01
1.47426169E-01
1.08234464E-01
6.80834439E-02
9.20259173E-01
9.13948493E-01
9.02982774E-01
8.86902066E-01
8.65493697E-01
8.39084721E-01
8.08561109E-01
7.75046938E-01
7.39521003E-01
7.02627860E-01
6.64601325E-01
6.25340761E-01
5.83535737E-01
5.37942662E-01
2.36153530E-02
1.49834909E-02
2.50852654E-02
2.12201912E-02
8.81194905E-01
8.31937892E-01
3.30459993E-01
9.97535305E-01
9.85386525E-01
9.75397959E-01
9.62861458E-01
9.49454648E-01
9.37432426E-01
7.88215940E-01
7.48115947E-01
7.09448731E-01
6.71805232E-01
6.35105589E-01
5.99688432E-01
5.66358885E-01
4.99046951E-01
5.35881662E-01
5.09215182E-01
4.87664786E-01
4.72824361E-01
4.64117897E-01
4.18916227E-01
3.93067532E-01
3.63260407E-01
2.95571778E-01
2.59435235E-01
2.22714564E-01
1.85789016E-01
1.48894965E-01
1.11936293E-01
7.62741437E-02
4.39795605E-02
4.33100785E-02
3.85644790E-01
3.43020128E-01
3.02187291E-01
2.62955693E-01
2.24570469E-01
1.86871933E-01
1.49777428E-01
1.12992026E-01
7.72073994E-02
9.16366448E-01
9.06064196E-01
8.90603229E-01
8.69568141E-01
8.42976268E-01
8.11971369E-01
7.77954870E-01
7.42080263E-01
7.04997422E-01
6.66982480E-01
6.27977398E-01
5.87358540E-01
5.44595801E-01
9.93372871E-01
9.79272204E-01
9.90305519E-01
9.97459745E-01
9.87620828E-01
3.57279205E-02
3.75927290E-02
4.64904674E-01
9.22319423E-01
3.32517655E-01
9.22502403E-01
9.78401726E-01
5.64294514E-01
5.05048958E-01
3.96877413E-01
3.39516221E-01
3.00729909E-01
2.62371827E-01
2.24580671E-01
1.87524125E-01
1.51416974E-01
8.45091066E-02
9.12836925E-01
9.63034509E-01
8.78302534E-01
8.50153495E-01
8.16808189E-01
7.81165726E-01
7.44446432E-01
7.07046995E-01
6.69128773E-01
5.91955139E-01
9.45901909E-01
9.32156118E-01
5.32791062E-01
4.78179100E-01
4.39883728E-01
3.66174281E-01
2.96925949E-01
2.60368411E-01
2.23518099E-01
1.86833891E-01
1.50718636E-01
1.16072891E-01
1.16706154E-01
8.39681042E-02
8.98260641E-01
8.27909584E-01
7.87004682E-01
7.47791341E-01
7.09508219E-01
6.71819367E-01
6.34716741E-01
6.30682092E-01
5.98549837E-01
5.52725009E-01
8.71481563E-01
5.65028269E-02
5.61525519E-02
9.46639285E-01
9.64389528E-01
9.09996895E-01
2.62737395E-02
8.22436092E-01
4.14580789E-01
4.63135846E-01
4.23677620E-01
4.03679005E-01
3.35662732E-01
2.98733273E-01
2.61385010E-01
2.24154024E-01
4.65673002E-01
3.71142652E-01
1.87427013E-01
4.99905088E-01
5.26860218E-01
5.59747493E-01
5.95755377E-01
6.32962166E-01
6.70644808E-01
7.08424839E-01
9.09291930E-01
7.46247861E-01
9.22258381E-01
7.84180935E-01
8.94730675E-01
8.60075460E-01
9.37768537E-01
1.17815962E-01
8.69089928E-02
9.46002946E-01
5.15717330E-01
4.86465172E-01
4.43976196E-01
4.55049907E-01
4.31643692E-01
4.55057571E-01
9.77564189E-01
9.92717026E-01
9.28127021E-01
1.21250432E-02
1.00519074E-02
7.48294264E-03
2.30182363E-02
4.30946975E-01
9.86576099E-01
1.26866799E-02
3.78168056E-01
4.46125702E-01
4.81122122E-01
9.25867536E-01
4.05628498E-02
6.05893834E-02
9.20889985E-01
9.19954830E-01
9.49784611E-01
9.31434191E-01
1.51622615E-01
1.00000000E+00
9.22312441E-01
1.00000000E+00
4.64209564E-01
1.56125113E-17
2.08817338E-16
2.00360561E-16
-2.78856799E-16
-4.33680869E-18
-6.24500451E-17
3.25260652E-18
8.54351312E-17
-4.16333634E-17
4.64106234E-01
9.98452950E-01
9.93813518E-01
9.86184194E-01
9.75917470E-01
9.63812207E-01
9.51167443E-01
9.39522628E-01
9.30254638E-01
9.24339566E-01
1.00000000E+00
1.00000000E+00
1.00000000E+00
1.00000000E+00
1.00000000E+00
1.00000000E+00
8.83694948E-01
8.32436663E-01
7.87525123E-01
7.47092702E-01
7.08208872E-01
6.70546707E-01
6.34012365E-01
5.98975576E-01
5.66141297E-01
5.36489109E-01
5.11067049E-01
4.90737900E-01
4.76029107E-01
4.67166148E-01
4.61253030E-01
4.52390784E-01
4.37686083E-01
4.17371228E-01
3.91980348E-01
3.62389126E-01
3.29673031E-01
2.94860055E-01
2.58749209E-01
2.21875498E-01
1.84512310E-01
1.46812654E-01
1.07936889E-01
6.79235247E-02
3.90321970E-01
3.44584913E-01
3.02565562E-01
2.62879887E-01
2.24066931E-01
1.85677304E-01
1.47426169E-01
1.08234464E-01
6.80834439E-02
9.20259173E-01
9.13948493E-01
9.02982774E-01
8.86902066E-01
8.65493697E-01
8.39084721E-01
8.08561109E-01
7.75046938E-01
7.39521003E-01
7.02627860E-01
6.64601325E-01
6.25340761E-01
5.83535737E-01
5.37942662E-01
2.36153531E-02
1.49834897E-02
2.50852655E-02
2.12201912E-02
8.81194905E-01
8.31937892E-01
3.30459993E-01
9.97535305E-01
9.85386525E-01
9.75397959E-01
9.62861458E-01
9.49454648E-01
9.37432426E-01
7.88215940E-01
7.48115947E-01
7.09448731E-01
6.71805232E-01
6.35105589E-01
5.99688432E-01
5.66358885E-01
4.99046951E-01
5.35881662E-01
5.09215182E-01
4.87664786E-01
4.72824361E-01
4.64117897E-01
4.18916227E-01
3.93067532E-01
3.63260407E-01
2.95571778E-01
2.59435235E-01
2.22714564E-01
1.85789016E-01
1.48894965E-01
1.11936293E-01
7.62741437E-02
4.39795604E-02
4.33100785E-02
3.85644790E-01
3.43020128E-01
3.02187291E-01
2.62955693E-01
2.24570469E-01
1.86871933E-01
1.49777428E-01
1.12992026E-01
7.72073994E-02
9.16366448E-01
9.06064196E-01
8.90603229E-01
8.69568141E-01
8.42976268E-01
8.11971369E-01
7.77954870E-01
7.42080263E-01
7.04997422E-01
6.66982480E-01
6.27977398E-01
5.87358540E-01
5.44595801E-01
9.93372871E-01
9.79272204E-01
9.90305520E-01
9.97459745E-01
9.87620830E-01
3.57279205E-02
3.75927289E-02
4.64904674E-01
9.22319423E-01
3.32517655E-01
9.22502403E-01
9.78401726E-01
5.64294514E-01
5.05048958E-01
3.96877413E-01
3.39516221E-01
3.00729909E-01
2.62371827E-01
2.24580671E-01
1.87524125E-01
1.51416974E-01
8.45091066E-02
9.12836925E-01
9.63034509E-01
8.78302534E-01
8.50153495E-01
8.16808189E-01
7.81165726E-01
7.44446432E-01
7.07046995E-01
6.69128773E-01
5.91955139E-01
9.45901909E-01
9.32156118E-01
5.32791062E-01
4.78179100E-01
4.39883728E-01
3.66174281E-01
2.96925949E-01
2.60368411E-01
2.23518099E-01
1.86833891E-01
1.50718636E-01
1.16072891E-01
1.16706154E-01
8.39681042E-02
8.98260641E-01
8.27909584E-01
7.87004682E-01
7.47791341E-01
7.09508219E-01
6.71819367E-01
6.34716741E-01
6.30682092E-01
5.98549837E-01
5.52725009E-01
8.71481563E-01
5.65028269E-02
5.61525519E-02
9.46639286E-01
9.64389528E-01
9.09996895E-01
2.62737398E-02
8.22436092E-01
4.14580789E-01
4.63135846E-01
4.23677620E-01
4.03679005E-01
3.35662732E-01
2.98733273E-01
2.61385010E-01
2.24154024E-01
4.65673002E-01
3.71142652E-01
1.87427013E-01
4.99905088E-01
5.26860218E-01
5.59747493E-01
5.95755377E-01
6.32962166E-01
6.70644808E-01
7.08424839E-01
9.09291930E-01
7.46247861E-01
9.22258381E-01
7.84180935E-01
8.94730675E-01
8.60075460E-01
9.37768537E-01
1.17815962E-01
8.69089928E-02
9.46002946E-01
5.15717330E-01
4.86465172E-01
4.43976196E-01
4.55049907E-01
4.31643692E-01
4.55057571E-01
9.77564189E-01
9.92717026E-01
9.28127021E-01
1.21250420E-02
1.00519076E-02
7.48294269E-03
2.30182362E-02
4.30946975E-01
9.86576099E-01
1.26866800E-02
3.78168056E-01
4.46125702E-01
4.81122122E-01
9.25867536E-01
4.05628497E-02
6.05893834E-02
9.20889985E-01
9.19954830E-01
9.49784611E-01
9.31434191E-01
1.51622615E-01
1.00000000E+00
9.22312441E-01
1.00000000E+00
4.64209564E-01
1.54390389E-16
7.19910243E-17
2.34187669E-16
-1.59594560E-16
-5.46437895E-17
4.59701721E-17
3.68628739E-17
3.13117587E-16
-5.03069808E-17
4.64106234E-01
9.98452950E-01
9.93813518E-01
9.86184194E-01
9.75917470E-01
9.63812207E-01
9.51167443E-01
9.39522628E-01
9.30254638E-01
9.24339566E-01
1.00000000E+00
1.00000000E+00
1.00000000E+00
1.00000000E+00
1.00000000E+00
1.00000000E+00
8.83694948E-01
8.32436663E-01
7.87525123E-01
7.47092702E-01
7.08208872E-01
6.70546707E-01
6.34012365E-01
5.98975576E-01
5.66141297E-01
5.36489109E-01
5.11067049E-01
4.90737900E-01
4.76029107E-01
4.67166148E-01
4.61253030E-01
4.52390784E-01
4.37686083E-01
4.17371228E-01
3.91980348E-01
3.62389126E-01
3.29673031E-01
2.94860055E-01
2.58749209E-01
2.21875498E-01
1.84512310E-01
1.46812654E-01
1.07936889E-01
6.79235247E-02
3.90321970E-01
3.44584913E-01
3.02565562E-01
2.62879887E-01
2.24066931E-01
1.85677304E-01
1.47426169E-01
1.08234464E-01
6.80834439E-02
9.20259173E-01
9.13948493E-01
9.02982774E-01
8.86902066E-01
8.65493697E-01
8.39084721E-01
8.08561109E-01
7.75046938E-01
7.39521003E-01
7.02627860E-01
6.64601325E-01
6.25340761E-01
5.83535737E-01
5.37942662E-01
2.36153530E-02
1.49834909E-02
2.50852654E-02
2.12201912E-02
8.81194905E-01
8.31937892E-01
3.30459993E-01
9.97535305E-01
9.85386525E-01
9.75397959E-01
9.62861458E-01
9.49454648E-01
9.37432426E-01
7.88215940E-01
7.48115947E-01
7.09448731E-01
6.71805232E-01
6.35105589E-01
5.99688432E-01
5.66358885E-01
4.99046951E-01
5.35881662E-01
5.09215182E-01
4.87664786E-01
4.72824361E-01
4.64117897E-01
4.18916227E-01
3.93067532E-01
3.63260407E-01
2.95571778E-01
2.59435235E-01
2.22714564E-01
1.85789016E-01
1.48894965E-01
1.11936293E-01
7.62741437E-02
4.39795605E-02
4.33100785E-02
3.85644790E-01
3.43020128E-01
3.02187291E-01
2.62955693E-01
2.24570469E-01
1.86871933E-01
1.49777428E-01
1.12992026E-01
7.72073994E-02
9.16366448E-01
9.06064196E-01
8.90603229E-01
8.69568141E-01
8.42976268E-01
8.11971369E-01
7.77954870E-01
7.42080263E-01
7.04997422E-01
6.66982480E-01
6.27977398E-01
5.87358540E-01
5.44595801E-01
9.93372871E-01
9.79272204E-01
9.90305519E-01
9.97459745E-01
9.87620828E-01
3.57279205E-02
3.75927290E-02
4.64904674E-01
9.22319423E-01
3.32517655E-01
9.22502403E-01
9.78401726E-01
5.64294514E-01
5.05048958E-01
3.96877413E-01
3.39516221E-01
3.00729909E-01
2.62371827E-01
2.24580671E-01
1.87524125E-01
1.51416974E-01
8.45091066E-02
9.12836925E-01
9.63034509E-01
8.78302534E-01
8.50153495E-01
8.16808189E-01
7.81165726E-01
7.44446432E-01
7.07046995E-01
6.69128773E-01
5.91955139E-01
9.45901909E-01
9.32156118E-01
5.32791062E-01
4.78179100E-01
4.39883728E-01
3.66174281E-01
2.96925949E-01
2.60368411E-01
2.23518099E-01
1.86833891E-01
1.50718636E-01
1.16072891E-01
1.16706154E-01
8.39681042E-02
8.98260641E-01
8.27909584E-01
7.87004682E-01
7.47791341E-01
7.09508219E-01
6.71819367E-01
6.34716741E-01
6.30682092E-01
5.98549837E-01
5.52725009E-01
8.71481563E-01
5.65028269E-02
5.61525519E-02
9.46639285E-01
9.64389528E-01
9.09996895E-01
2.62737395E-02
8.22436092E-01
4.14580789E-01
4.63135846E-01
4.23677620E-01
4.03679005E-01
3.35662732E-01
2.98733273E-01
2.61385010E-01
2.24154024E-01
4.65673002E-01
3.71142652E-01
1.87427013E-01
4.99905088E-01
5.26860218E-01
5.59747493E-01
5.95755377E-01
6.32962166E-01
6.70644808E-01
7.08424839E-01
9.09291930E-01
7.46247861E-01
9.22258381E-01
7.84180935E-01
8.94730675E-01
8.60075460E-01
9.37768537E-01
1.17815962E-01
8.69089928E-02
9.46002946E-01
5.15717330E-01
4.86465172E-01
4.43976196E-01
4.55049907E-01
4.31643692E-01
4.55057571E-01
9.77564189E-01
9.92717026E-01
9.28127021E-01
1.21250432E-02
1.00519074E-02
7.48294264E-03
2.30182363E-02
4.30946975E-01
9.86576099E-01
1.26866799E-02
3.78168056E-01
4.46125702E-01
4.81122122E-01
9.25867536E-01
4.05628498E-02
6.05893834E-02
9.20889985E-01
9.19954830E-01
9.49784611E-01
9.31434191E-01
1.51622615E-01
9.24767743E-01
9.25783407E-01
9.18960174E-01
9.19862866E-01
9.19862866E-01
9.18960174E-01
9.25783407E-01
9.24767743E-01
9.16366448E-01
9.22319423E-01
9.22502403E-01
9.28127021E-01
8.76852128E-01
8.88220545E-01
8.80778863E-01
8.67001927E-01
8.67001927E-01
8.80778863E-01
8.88220545E-01
8.76852128E-01
8.69568141E-01
8.65493697E-01
8.90603229E-01
8.86902066E-01
8.31891532E-01
8.55810120E-01
8.87313413E-01
8.55616948E-01
8.55616948E-01
8.87313413E-01
8.55810121E-01
8.31891532E-01
8.83694948E-01
8.32436663E-01
8.81194905E-01
8.31937892E-01
4.66387854E-01
4.67729906E-01
4.75196218E-01
4.70861746E-01
4.70861746E-01
4.75196218E-01
4.67729906E-01
4.66387854E-01
4.76029107E-01
4.67166148E-01
4.72824361E-01
4.64117897E-01
4.55543692E-01
4.53242008E-01
4.76804133E-01
4.75292885E-01
4.75292885E-01
4.76804133E-01
4.53242008E-01
4.55543692E-01
4.86465172E-01
4.65673002E-01
4.64904674E-01
4.43976196E-01
2.72481862E-02
8.84708973E-17
1.05727068E-02
3.10232968E-02
3.10232968E-02
1.05727066E-02
-1.14491749E-16
2.72481863E-02
2.36153557E-02
4.33100788E-02
2.09901541E-16
-1.24900090E-16
1.38261745E-02
6.98799403E-03
1.80411242E-16
5.53426909E-03
5.53427045E-03
-2.60208521E-17
6.98799528E-03
1.38261759E-02
-1.84748050E-16
1.21250427E-02
3.64291930E-17
1.49834902E-02
1.73472348E-16
1.89752534E-02
1.89752529E-02
1.11022302E-16
3.23782961E-02
3.95689699E-02
3.16923886E-02
2.58824325E-02
2.58824322E-02
3.16923887E-02
3.95689700E-02
3.23782961E-02
2.62737397E-02
2.50852654E-02
3.75927283E-02
4.05628499E-02
2.05930568E-02
1.82528379E-02
1.82528376E-02
2.05930565E-02
1.14123740E-02
1.53168746E-02
2.34682623E-02
2.34682623E-02
1.53168747E-02
1.14123735E-02
2.12201912E-02
1.00519075E-02
2.80703440E-02
1.72882656E-02
1.74045322E-02
3.00530357E-02
3.00530357E-02
1.74045323E-02
1.72882656E-02
2.80703440E-02
2.30182369E-02
3.57279203E-02
1.26866800E-02
9.97870810E-01
9.99610711E-01
1.00000000E+00
9.98913042E-01
9.98913041E-01
1.00000000E+00
9.99610711E-01
9.97870810E-01
1.00000000E+00
9.97459745E-01
1.00000000E+00
9.98452950E-01
9.92794256E-01
9.95358647E-01
9.97407052E-01
9.95710183E-01
9.95710183E-01
9.97407052E-01
9.95358647E-01
9.92794256E-01
9.97535305E-01
9.93372870E-01
9.92717026E-01
9.93131525E-01
9.89336415E-01
9.85635203E-01
9.90355546E-01
9.90355546E-01
9.85635203E-01
9.89336415E-01
9.93131525E-01
9.86184194E-01
9.93813518E-01
9.85386525E-01
9.80674714E-01
9.75494147E-01
9.81334110E-01
9.81334110E-01
9.75494147E-01
9.80674713E-01
9.75917470E-01
9.75397959E-01
9.69306991E-01
9.63287908E-01
9.70013429E-01
9.70013429E-01
9.63287908E-01
9.69306991E-01
9.63812207E-01
9.62861458E-01
9.50466077E-01
9.57460147E-01
9.56118767E-01
9.56118767E-01
9.57460147E-01
9.50466077E-01
9.49454648E-01
9.51167443E-01
9.43197571E-01
9.38792420E-01
9.45129273E-01
9.45129273E-01
9.38792420E-01
9.43197571E-01
9.39522628E-01
9.37432426E-01
8.89086291E-01
8.73331427E-01
8.93910617E-01
8.93910617E-01
8.73331427E-01
8.89086291E-01
8.98260641E-01
8.78302534E-01
1.00000000E+00
9.93609055E-01
9.89110680E-01
9.95126558E-01
9.95126557E-01
9.89110679E-01
9.93609054E-01
1.00000000E+00
9.90305520E-01
1.00000000E+00
9.87620830E-01
1.00000000E+00
9.90121314E-01
9.85847152E-01
9.85847152E-01
9.90121314E-01
9.86576100E-01
1.00000000E+00
9.96601030E-01
9.98785074E-01
9.98785074E-01
9.96601030E-01
1.00000000E+00
1.00000000E+00
1.00000000E+00
1.00000000E+00
1.00000000E+00
7.88292181E-01
8.09594540E-01
8.09257529E-01
8.09257529E-01
8.09594540E-01
7.88292181E-01
7.87525123E-01
7.88215940E-01
7.47693777E-01
7.67922120E-01
7.67017525E-01
7.67017525E-01
7.67922120E-01
7.47693777E-01
7.47092702E-01
7.48115947E-01
7.08929800E-01
7.28635491E-01
7.27477622E-01
7.27477622E-01
7.28635491E-01
7.08929800E-01
7.08208872E-01
7.09448731E-01
6.71264584E-01
6.90507992E-01
6.89240325E-01
6.89240325E-01
6.90507992E-01
6.71264584E-01
6.70546707E-01
6.71805232E-01
6.34682518E-01
6.53315603E-01
6.52120559E-01
6.52120559E-01
6.53315603E-01
6.34682518E-01
6.34012365E-01
6.35105589E-01
5.99522632E-01
6.17191249E-01
6.16267751E-01
6.16267751E-01
6.17191249E-01
5.99522632E-01
5.98975576E-01
5.99688432E-01
5.66544858E-01
5.82708343E-01
5.82224510E-01
5.82224510E-01
5.82708343E-01
5.66544858E-01
5.66141297E-01
5.66358885E-01
5.34716306E-01
5.21934979E-01
5.07640968E-01
5.18340445E-01
5.18340445E-01
5.07640968E-01
5.21934979E-01
5.34716306E-01
5.05048958E-01
5.32791062E-01
5.09215182E-01
5.35881662E-01
5.10730576E-01
5.36613459E-01
5.23189910E-01
5.23189910E-01
5.36613459E-01
5.10730576E-01
5.36489109E-01
5.11067049E-01
4.89958587E-01
4.97714946E-01
5.00228296E-01
5.00228296E-01
4.97714946E-01
4.89958587E-01
4.90737900E-01
4.87664786E-01
5.42888530E-01
5.21759701E-01
5.33998170E-01
5.56369871E-01
5.56369871E-01
5.33998170E-01
5.21759701E-01
5.42888530E-01
5.52725009E-01
5.59747493E-01
5.15717330E-01
5.26860218E-01
4.79497530E-01
4.82664480E-01
4.82664480E-01
4.79497530E-01
4.63470390E-01
4.61962421E-01
4.64948849E-01
4.64948849E-01
4.61962421E-01
4.63470390E-01
4.64209564E-01
4.61253030E-01
4.38186004E-01
4.28202504E-01
4.17652039E-01
4.30095562E-01
4.30095562E-01
4.17652039E-01
4.28202504E-01
4.38186004E-01
4.18916227E-01
4.39883728E-01
4.17371228E-01
4.37686083E-01
4.69739959E-01
4.55414637E-01
4.50015736E-01
4.67446608E-01
4.67446608E-01
4.50015736E-01
4.55414637E-01
4.69739959E-01
4.55049907E-01
4.78179100E-01
4.46125702E-01
4.63135846E-01
4.20804160E-01
4.35624228E-01
4.42394534E-01
4.42394534E-01
4.35624228E-01
4.20804160E-01
4.23677620E-01
3.92143231E-01
4.06583292E-01
4.05260632E-01
4.05260632E-01
4.06583292E-01
3.92143231E-01
3.91980348E-01
3.93067532E-01
3.29889354E-01
3.47170433E-01
3.62553249E-01
3.46354836E-01
3.46354836E-01
3.62553249E-01
3.47170433E-01
3.29889354E-01
3.62389126E-01
3.29673031E-01
3.63260407E-01
3.30459993E-01
2.95109131E-01
3.13209588E-01
3.12474541E-01
3.12474541E-01
3.13209588E-01
2.95109131E-01
2.94860055E-01
2.95571778E-01
2.59032049E-01
2.77616358E-01
2.76929807E-01
2.76929807E-01
2.77616358E-01
2.59032049E-01
2.58749209E-01
2.59435235E-01
2.22256336E-01
2.41139064E-01
2.40386225E-01
2.40386225E-01
2.41139064E-01
2.22256336E-01
2.21875498E-01
2.22714564E-01
1.85137714E-01
2.04291405E-01
2.03245885E-01
2.03245885E-01
2.04291405E-01
1.85137714E-01
1.84512310E-01
1.85789016E-01
1.47751922E-01
1.67380028E-01
1.65720271E-01
1.65720271E-01
1.67380028E-01
1.47751922E-01
1.46812654E-01
1.48894965E-01
1.10104613E-01
1.30471011E-01
1.27587371E-01
1.27587371E-01
1.30471011E-01
1.10104613E-01
1.07936889E-01
1.11936293E-01
7.04424474E-02
9.42215596E-02
8.84637692E-02
8.84637692E-02
9.42215596E-02
7.04424474E-02
6.79235247E-02
7.62741437E-02
1.28023715E-01
1.48518052E-01
1.31418613E-01
1.10802221E-01
1.10802221E-01
1.31418613E-01
1.48518052E-01
1.28023715E-01
1.12992026E-01
1.08234464E-01
1.49777428E-01
1.47426169E-01
4.08634232E-01
3.87867082E-01
3.74495556E-01
3.96646830E-01
3.96646830E-01
3.74495556E-01
3.87867082E-01
4.08634232E-01
3.78168056E-01
4.14580789E-01
3.71142652E-01
4.03679005E-01
3.66423979E-01
3.89898212E-01
3.63877462E-01
3.43849903E-01
3.43849903E-01
3.63877462E-01
3.89898212E-01
3.66423979E-01
3.43020128E-01
3.44584913E-01
3.85644790E-01
3.90321970E-01
3.53610346E-01
3.37581178E-01
3.58810749E-01
3.58810749E-01
3.37581178E-01
3.53610346E-01
3.39516221E-01
3.35662732E-01
3.22339059E-01
3.41383919E-01
3.20055583E-01
3.01559443E-01
3.01559443E-01
3.20055583E-01
3.41383919E-01
3.22339059E-01
3.00729909E-01
3.02187291E-01
2.82436359E-01
2.81490042E-01
2.62709425E-01
2.62709425E-01
2.81490042E-01
2.82436359E-01
2.62371827E-01
2.62955693E-01
2.43695496E-01
2.43440454E-01
2.24602729E-01
2.24602729E-01
2.43440454E-01
2.43695496E-01
2.24580671E-01
2.24570469E-01
2.05691232E-01
2.06027913E-01
1.87216089E-01
1.87216089E-01
2.06027913E-01
2.05691232E-01
1.87524125E-01
1.86871933E-01
1.68325938E-01
1.69445455E-01
1.50599694E-01
1.50599694E-01
1.69445455E-01
1.68325938E-01
1.51416974E-01
1.00464300E-01
8.10594964E-02
9.52036646E-02
1.14900273E-01
1.14900273E-01
9.52036646E-02
8.10594964E-02
1.00464300E-01
1.16706154E-01
7.72073994E-02
8.45091066E-02
9.21804397E-01
9.22824767E-01
9.23800103E-01
9.20810499E-01
9.20810499E-01
9.23800103E-01
9.22824767E-01
9.21804397E-01
9.20259173E-01
9.24339566E-01
9.22312441E-01
9.17657703E-01
9.14667810E-01
9.14667810E-01
9.17657703E-01
9.13948493E-01