# vtk DataFile Version 1.0
ECM-CELL DIFFUSION-MECHANICS
ASCII

DATASET UNSTRUCTURED_GRID
POINTS      258 float
1.50000000E+01 3.00000000E+01 4.80000000E+01
-5.00000000E+00 3.00000000E+01 4.80000000E+01
-5.00000000E+00 0.00000000E+00 4.80000000E+01
-2.50000000E+01 0.00000000E+00 4.80000000E+01
-2.69134178E+01 -9.61939812E+00 4.80000000E+01
-2.85355339E+01 -8.53553391E+00 4.80000000E+01
-2.96193981E+01 -6.91341734E+00 4.80000000E+01
-3.00000000E+01 -5.00000000E+00 4.80000000E+01
-2.96193981E+01 -3.08658290E+00 4.80000000E+01
-2.85355339E+01 -1.46446609E+00 4.80000000E+01
-2.69134178E+01 -3.80602330E-01 4.80000000E+01
-2.50000000E+01 -1.00000000E+01 4.80000000E+01
5.00000000E+00 -1.00000000E+01 4.80000000E+01
5.00000000E+00 2.00000000E+01 4.80000000E+01
1.30000000E+01 3.00000000E+01 4.80000000E+01
1.10000000E+01 3.00000000E+01 4.80000000E+01
9.00000000E+00 3.00000000E+01 4.80000000E+01
7.00000000E+00 3.00000000E+01 4.80000000E+01
5.00000000E+00 3.00000000E+01 4.80000000E+01
3.00000000E+00 3.00000000E+01 4.80000000E+01
1.00000000E+00 3.00000000E+01 4.80000000E+01
-1.00000000E+00 3.00000000E+01 4.80000000E+01
-3.00000000E+00 3.00000000E+01 4.80000000E+01
-5.00000000E+00 2.80000000E+01 4.80000000E+01
-5.00000000E+00 2.60000000E+01 4.80000000E+01
-5.00000000E+00 2.40000000E+01 4.80000000E+01
-5.00000000E+00 2.20000000E+01 4.80000000E+01
-5.00000000E+00 2.00000000E+01 4.80000000E+01
-5.00000000E+00 1.80000000E+01 4.80000000E+01
-5.00000000E+00 1.60000000E+01 4.80000000E+01
-5.00000000E+00 1.40000000E+01 4.80000000E+01
-5.00000000E+00 1.20000000E+01 4.80000000E+01
-5.00000000E+00 1.00000000E+01 4.80000000E+01
-5.00000000E+00 8.00000000E+00 4.80000000E+01
-5.00000000E+00 6.00000000E+00 4.80000000E+01
-5.00000000E+00 4.00000000E+00 4.80000000E+01
-5.00000000E+00 2.00000000E+00 4.80000000E+01
-7.00000000E+00 0.00000000E+00 4.80000000E+01
-9.00000000E+00 0.00000000E+00 4.80000000E+01
-1.10000000E+01 0.00000000E+00 4.80000000E+01
-1.30000000E+01 0.00000000E+00 4.80000000E+01
-1.50000000E+01 0.00000000E+00 4.80000000E+01
-1.70000000E+01 0.00000000E+00 4.80000000E+01
-1.90000000E+01 0.00000000E+00 4.80000000E+01
-2.10000000E+01 0.00000000E+00 4.80000000E+01
-2.30000000E+01 0.00000000E+00 4.80000000E+01
3.00000000E+00 -1.00000000E+01 4.80000000E+01
1.00000000E+00 -1.00000000E+01 4.80000000E+01
-1.00000000E+00 -1.00000000E+01 4.80000000E+01
-3.00000000E+00 -1.00000000E+01 4.80000000E+01
-5.00000000E+00 -1.00000000E+01 4.80000000E+01
-7.00000000E+00 -1.00000000E+01 4.80000000E+01
-9.00000000E+00 -1.00000000E+01 4.80000000E+01
-1.10000000E+01 -1.00000000E+01 4.80000000E+01
-1.30000000E+01 -1.00000000E+01 4.80000000E+01
-1.50000000E+01 -1.00000000E+01 4.80000000E+01
-1.70000000E+01 -1.00000000E+01 4.80000000E+01
-1.90000000E+01 -1.00000000E+01 4.80000000E+01
-2.10000000E+01 -1.00000000E+01 4.80000000E+01
-2.30000000E+01 -1.00000000E+01 4.80000000E+01
5.00000000E+00 1.80000000E+01 4.80000000E+01
5.00000000E+00 1.60000000E+01 4.80000000E+01
5.00000000E+00 1.40000000E+01 4.80000000E+01
5.00000000E+00 1.20000000E+01 4.80000000E+01
5.00000000E+00 1.00000000E+01 4.80000000E+01
5.00000000E+00 8.00000000E+00 4.80000000E+01
5.00000000E+00 6.00000000E+00 4.80000000E+01
5.00000000E+00 4.00000000E+00 4.80000000E+01
5.00000000E+00 2.00000000E+00 4.80000000E+01
5.00000000E+00 0.00000000E+00 4.80000000E+01
5.00000000E+00 -2.00000000E+00 4.80000000E+01
5.00000000E+00 -4.00000000E+00 4.80000000E+01
5.00000000E+00 -6.00000000E+00 4.80000000E+01
5.00000000E+00 -8.00000000E+00 4.80000000E+01
6.42857122E+00 2.14285717E+01 4.80000000E+01
7.85714293E+00 2.28571434E+01 4.80000000E+01
9.28571415E+00 2.42857151E+01 4.80000000E+01
1.07142859E+01 2.57142849E+01 4.80000000E+01
1.21428576E+01 2.71428566E+01 4.80000000E+01
1.35714283E+01 2.85714283E+01 4.80000000E+01
-2.55692158E+01 -7.47994947E+00 4.80000000E+01
-2.68123989E+01 -6.65812349E+00 4.80000000E+01
-2.78370075E+01 -5.65078545E+00 4.80000000E+01
-2.49931679E+01 -2.99975061E+00 4.80000000E+01
-6.07402325E+00 -2.51799893E+00 4.80000000E+01
-3.41205382E+00 6.06536293E+00 4.80000000E+01
-7.90601015E+00 -2.16468501E+00 4.80000000E+01
6.93360615E+00 2.85683231E+01 4.80000000E+01
5.03122282E+00 2.85983677E+01 4.80000000E+01
3.07519960E+00 2.83579216E+01 4.80000000E+01
1.02007830E+00 2.82704353E+01 4.80000000E+01
-1.00747931E+00 2.81540108E+01 4.80000000E+01
-2.98253322E+00 2.20530071E+01 4.80000000E+01
-3.14535069E+00 1.99964409E+01 4.80000000E+01
-3.38007402E+00 1.80213890E+01 4.80000000E+01
-3.24730754E+00 1.60810070E+01 4.80000000E+01
-3.22061014E+00 1.40090933E+01 4.80000000E+01
-3.27037716E+00 1.19557343E+01 4.80000000E+01
-3.32515502E+00 9.95609379E+00 4.80000000E+01
-3.37583542E+00 7.99501371E+00 4.80000000E+01
-3.38906217E+00 4.20707273E+00 4.80000000E+01
-3.21241689E+00 2.45526028E+00 4.80000000E+01
-2.81301451E+00 1.00452256E+00 4.80000000E+01
-9.85906696E+00 -1.94350755E+00 4.80000000E+01
-1.18253517E+01 -1.81189597E+00 4.80000000E+01
-1.37737036E+01 -1.72045147E+00 4.80000000E+01
-1.56994905E+01 -1.64893782E+00 4.80000000E+01
-1.76126289E+01 -1.59551537E+00 4.80000000E+01
-1.95252953E+01 -1.56757510E+00 4.80000000E+01
-2.14428196E+01 -1.57937253E+00 4.80000000E+01
-2.40465412E+01 -7.98486996E+00 4.80000000E+01
-2.32975655E+01 -1.60528278E+00 4.80000000E+01
-8.58305335E-01 -8.21509266E+00 4.80000000E+01
-2.85219836E+00 -8.24649334E+00 4.80000000E+01
-4.86234474E+00 -8.28040028E+00 4.80000000E+01
-6.82275486E+00 -8.35858631E+00 4.80000000E+01
-8.72553921E+00 -8.46272755E+00 4.80000000E+01
-1.06668940E+01 -8.49340248E+00 4.80000000E+01
-1.26085234E+01 -8.47250462E+00 4.80000000E+01
-1.45571985E+01 -8.43932819E+00 4.80000000E+01
-1.65147133E+01 -8.41329861E+00 4.80000000E+01
-1.84622021E+01 -8.38815498E+00 4.80000000E+01
-2.03904629E+01 -8.34011364E+00 4.80000000E+01
-2.22757702E+01 -8.22864628E+00 4.80000000E+01
3.32341838E+00 1.79214497E+01 4.80000000E+01
3.49274993E+00 1.58118629E+01 4.80000000E+01
3.45036292E+00 1.38697481E+01 4.80000000E+01
3.40310287E+00 1.19041443E+01 4.80000000E+01
3.36840963E+00 9.92752457E+00 4.80000000E+01
3.33398676E+00 7.94917822E+00 4.80000000E+01
3.27319622E+00 5.98151016E+00 4.80000000E+01
3.14357090E+00 4.00265217E+00 4.80000000E+01
2.93195248E+00 2.00336671E+00 4.80000000E+01
2.85718203E+00 -7.79486522E-02 4.80000000E+01
2.96486330E+00 -2.16540527E+00 4.80000000E+01
3.04931951E+00 -4.18990898E+00 4.80000000E+01
3.07869506E+00 -6.14942598E+00 4.80000000E+01
3.06127834E+00 -8.08621216E+00 4.80000000E+01
8.87478542E+00 2.87956104E+01 4.80000000E+01
1.06500645E+01 2.90019722E+01 4.80000000E+01
9.73117542E+00 2.65182457E+01 4.80000000E+01
4.64431381E+00 2.23340874E+01 4.80000000E+01
8.02427673E+00 2.53785686E+01 4.80000000E+01
6.40424109E+00 2.39808598E+01 4.80000000E+01
-2.30793724E+01 -6.28166199E+00 4.80000000E+01
-2.65148945E+01 -3.90364408E+00 4.80000000E+01
-3.43422222E+00 -1.27146482E+00 4.80000000E+01
1.04067838E+00 2.66475811E+01 4.80000000E+01
1.10761571E+00 -8.16181087E+00 4.80000000E+01
-7.36092031E-01 -6.43063927E+00 4.80000000E+01
-4.75875711E+00 -6.53175259E+00 4.80000000E+01
-6.72676086E+00 -6.65011883E+00 4.80000000E+01
-8.50626945E+00 -6.96918011E+00 4.80000000E+01
-1.03056269E+01 -7.00035810E+00 4.80000000E+01
-1.21337996E+01 -6.91552496E+00 4.80000000E+01
-1.40198870E+01 -6.83708525E+00 4.80000000E+01
-1.59333124E+01 -6.77759314E+00 4.80000000E+01
-1.20785129E+00 1.97240963E+01 4.80000000E+01
-1.32478476E+00 1.64232349E+01 4.80000000E+01
1.96661806E+00 1.56013527E+01 4.80000000E+01
1.83737338E+00 1.38039751E+01 4.80000000E+01
1.66680229E+00 7.95078230E+00 4.80000000E+01
1.58930695E+00 6.05578279E+00 4.80000000E+01
1.41368437E+00 4.18972206E+00 4.80000000E+01
-2.88116503E+00 2.41189423E+01 4.80000000E+01
-1.05743062E+00 2.20182400E+01 4.80000000E+01
-2.06459260E+00 1.80287819E+01 4.80000000E+01
1.76209581E+00 1.18621569E+01 4.80000000E+01
1.71383548E+00 9.90428638E+00 4.80000000E+01
-1.96961384E+01 -6.65574455E+00 4.80000000E+01
1.10382271E+00 -2.44856596E+00 4.80000000E+01
-2.71728683E+00 -6.50229883E+00 4.80000000E+01
-6.94966459E+00 -4.68074226E+00 4.80000000E+01
-8.87774658E+00 -3.94481039E+00 4.80000000E+01
-1.07458334E+01 -3.67898369E+00 4.80000000E+01
-1.26495609E+01 -3.53031301E+00 4.80000000E+01
-1.45555058E+01 -3.42598987E+00 4.80000000E+01
-1.64351330E+01 -3.33984756E+00 4.80000000E+01
-1.82789097E+01 -3.26375914E+00 4.80000000E+01
-1.78273373E+01 -6.72471857E+00 4.80000000E+01
-2.00785789E+01 -3.19971037E+00 4.80000000E+01
-1.49681842E+00 1.40206604E+01 4.80000000E+01
-1.58211720E+00 1.19191847E+01 4.80000000E+01
-1.64738953E+00 9.92495728E+00 4.80000000E+01
-1.70833540E+00 7.99023056E+00 4.80000000E+01
-1.75975442E+00 6.13986826E+00 4.80000000E+01
-1.75903368E+00 4.42714834E+00 4.80000000E+01
-1.57233489E+00 2.89093947E+00 4.80000000E+01
8.35785091E-01 2.16724944E+00 4.80000000E+01
6.82180047E-01 -2.41043478E-01 4.80000000E+01
1.19283760E+00 -4.42227745E+00 4.80000000E+01
5.08529997E+00 2.73792095E+01 4.80000000E+01
3.36510825E+00 2.64843388E+01 4.80000000E+01
2.03854513E+00 1.69918709E+01 4.80000000E+01
-2.18747597E+01 -3.21142745E+00 4.80000000E+01
-2.14750767E+01 -6.53344297E+00 4.80000000E+01
3.87977886E+00 2.02254429E+01 4.80000000E+01
6.80135918E+00 2.67542229E+01 4.80000000E+01
3.63350844E+00 2.38850384E+01 4.80000000E+01
-2.38274765E+01 -3.46659899E+00 4.80000000E+01
1.18041360E+00 -6.30371428E+00 4.80000000E+01
-9.38736618E-01 2.63029137E+01 4.80000000E+01
1.22929611E+01 2.88663254E+01 4.80000000E+01
-2.54329395E+01 -4.97643757E+00 4.80000000E+01
-2.34656639E+01 -4.58569384E+00 4.80000000E+01
2.50105619E+00 2.18994751E+01 4.80000000E+01
1.02533674E+00 1.74530888E+01 4.80000000E+01
-2.03710103E+00 -2.63990819E-01 4.80000000E+01
-2.58995533E+00 -4.80094004E+00 4.80000000E+01
-8.48027420E+00 -5.76261616E+00 4.80000000E+01
-9.76420498E+00 -5.45034361E+00 4.80000000E+01
-1.15105400E+01 -5.29605007E+00 4.80000000E+01
-1.33758335E+01 -5.19502783E+00 4.80000000E+01
-1.39613941E-01 4.48769760E+00 4.80000000E+01
-4.65231037E+00 -4.77523041E+00 4.80000000E+01
-6.82374060E-01 -2.91642618E+00 4.80000000E+01
-1.52690411E+01 -5.11363983E+00 4.80000000E+01
-6.56300783E-02 6.15421581E+00 4.80000000E+01
-1.08489251E+00 -1.39932156E+00 4.80000000E+01
-1.06679821E+00 1.62087166E+00 4.80000000E+01
-1.24161234E-02 7.98827744E+00 4.80000000E+01
8.48017856E-02 1.18839493E+01 4.80000000E+01
3.37320901E-02 9.92000008E+00 4.80000000E+01
1.64119601E-01 1.38965883E+01 4.80000000E+01
4.08286780E-01 1.58328867E+01 4.80000000E+01
6.25479996E-01 2.03010693E+01 4.80000000E+01
-1.50913820E-01 1.81863232E+01 4.80000000E+01
-1.71419277E+01 -5.04282713E+00 4.80000000E+01
-1.89704075E+01 -4.97220182E+00 4.80000000E+01
-5.94378114E-01 2.42636070E+01 4.80000000E+01
1.91058230E+00 1.87361507E+01 4.80000000E+01
-2.22677994E+01 -4.73615551E+00 4.80000000E+01
5.08411074E+00 2.51987476E+01 4.80000000E+01
-6.61113381E-01 -4.65103960E+00 4.80000000E+01
-2.35311747E+00 -1.99394405E+00 4.80000000E+01
7.17164218E-01 2.19067993E+01 4.80000000E+01
2.42589617E+00 2.30299225E+01 4.80000000E+01
-4.26703167E+00 -2.97138119E+00 4.80000000E+01
-2.47106886E+00 -3.21366310E+00 4.80000000E+01
-2.95505738E+00 2.61031113E+01 4.80000000E+01
-2.44062843E+01 -5.78745651E+00 4.80000000E+01
1.11900005E+01 2.76029587E+01 4.80000000E+01
-3.00564528E+00 2.80624599E+01 4.80000000E+01
-2.86195679E+01 -4.77531338E+00 4.80000000E+01
-2.77284527E+01 -2.32228160E+00 4.80000000E+01
-2.65301876E+01 -2.03538251E+00 4.80000000E+01
-2.49753170E+01 -1.63643456E+00 4.80000000E+01
-2.81240730E+01 -3.52081490E+00 4.80000000E+01
8.99391651E+00 2.75412903E+01 4.80000000E+01
2.33917475E+00 2.03422546E+01 4.80000000E+01
1.04003115E+01 2.80933590E+01 4.80000000E+01
-8.09095621E-01 4.35396373E-01 4.80000000E+01
2.31196761E+00 2.47869625E+01 4.80000000E+01
-2.07040234E+01 -4.87518072E+00 4.80000000E+01
8.12728226E-01 1.91052380E+01 4.80000000E+01
9.86865878E-01 2.53211288E+01 4.80000000E+01
1.19369018E+00 2.34800301E+01 4.80000000E+01
-2.93027848E-01 3.20813227E+00 4.80000000E+01

CELLS      217     1085
   4         142         140         248         197
   4          21          91          90          20
   4          49         113         114          50
   4          64         128         129          65
   4          37          86          84           2
   4         110          11          59         123
   4           5           4          80          81
   4         109         194         180         108
   4           7           6          82         243
   4         144         240          80         110
   4         245         145          83         246
   4          87          17          18          88
   4         138          87         197         248
   4          89          19          20          90
   4         192         191          88          89
   4          22         242          91          21
   4           1          23         242          22
   4          25          26          92         164
   4          89          90         147         192
   4         201         239         164         229
   4          93          92          26          27
   4          94          93          27          28
   4          95          94          28          29
   4          96          95          29          30
   4          97          96          30          31
   4          98          97          31          32
   4          85          99          33          34
   4         100          85          34          35
   4         101         100          35          36
   4         102         101          36           2
   4         149         233         208         171
   4          38         103          86          37
   4          39         104         103          38
   4          40         105         104          39
   4          41         106         105          40
   4          42         107         106          41
   4          43         108         107          42
   4          44         109         108          43
   4         122          58          57         121
   4          82          81         203         145
   4          46          12          73         137
   4          46         137         148          47
   4         170         190         135         134
   4          48         112         113          49
   4          50         114         115          51
   4         114         150         151         115
   4         152         116         115         151
   4         152         153         117         116
   4         153         154         118         117
   4         154         155         119         118
   4         155         156         120         119
   4         249         225         254         230
   4         230         206         193         124
   4         166         158         226         157
   4         160         159         224         223
   4         159         160         126         125
   4          63         127         128          64
   4          65         129         130          66
   4         130         129         161         162
   4         162         163         131         130
   4          69         133         134          70
   4          70         134         135          71
   4          71         135         136          72
   4          72         136         137          73
   4          17          87         138          16
   4          16         138         139          15
   4          14         202          79           0
   4         202          14          15         139
   4           9         244         245          10
   4          80           4          11         110
   4          81          82           6           5
   4         247         243          82         145
   4          45         111         109          44
   4          10         245         246           3
   4          51         115         116          52
   4          88          18          19          89
   4         142          76          77         140
   4         142         143          75          76
   4         198         232         192         252
   4         165         229         164          92
   4          23          24         239         242
   4          93         157         165          92
   4         206         226         158         224
   4          60         124         125          61
   4          61         125         126          62
   4          62         126         127          63
   4          99          98          32          33
   4         160         167         127         126
   4         221         182         183         222
   4          66         130         131          67
   4          67         131         132          68
   4         146           2          84         237
   4          68         132         133          69
   4          52         116         117          53
   4          53         117         118          54
   4          54         118         119          55
   4          55         119         120          56
   4          56         120         121          57
   4         123         122         169         195
   4         111          45           3         246
   4         111         199         194         109
   4         123          59          58         122
   4         203         199          83         145
   4         112          48          47         148
   4         234         218         207         146
   4         171         113         112         149
   4         214         208         238         237
   4         214         172         151         150
   4         209         210         153         152
   4         153         210         211         154
   4         154         211         212         155
   4         216         176         177         227
   4         227         177         178         228
   4         156         179         121         120
   4         108         180         178         107
   4         144         231         204         240
   4         124          60          13         196
   4         141         196          13          74
   4         181         223         224         158
   4         223         181         182         221
   4         222         183         184         220
   4          99         184         183          98
   4         184         185         217         220
   4         185         186         213         217
   4         186         187         257         213
   4         163         188         132         131
   4         219         188         257         187
   4         234         238         215         218
   4         215         233         190         170
   4         190         200         136         135
   4         200         148         137         136
   4          77          78         241         140
   4         241         202         139         250
   4          74          75         143         141
   4          88         191         197          87
   4         110         123         195         144
   4         102           2         146         207
   4         172         214         237          84
   4          90          91         201         147
   4         226         206         230         254
   4         112         148         200         149
   4         150         114         113         171
   4          86         173         172          84
   4         103         174         173          86
   4         104         175         174         103
   4         105         176         175         104
   4         106         177         176         105
   4         107         178         177         106
   4         158         166          94          95
   4          95          96         181         158
   4         181          96          97         182
   4         125         124         193         159
   4         129         128         168         161
   4          85         185         184          99
   4         100         186         185          85
   4         101         187         186         100
   4          24          25         164         239
   4         255         229         256         252
   4         157          93          94         166
   4          98         183         182          97
   4         128         127         167         168
   4         122         121         179         169
   4         204         231         194         199
   4         134         133         189         170
   4         173         210         209         172
   4         174         211         210         173
   4         175         212         211         174
   4         176         216         212         175
   4         179         227         228         169
   4         227         179         156         216
   4         231         253         180         194
   4         187         101         102         219
   4         251         207         218         189
   4         132         188         189         133
   4         188         163         213         257
   4         200         190         233         149
   4         232         197         191         192
   4         252         256         236         198
   4         230         124         196         249
   4         111         246          83         199
   4         195         253         231         144
   4         205         141         198         236
   4         198         141         143         232
   4         199         203         240         204
   4         239         201          91         242
   4          78          79         202         241
   4         240         203          81          80
   4         236         256         235         205
   4         196         141         205         249
   4         159         193         206         224
   4         219         102         207         251
   4         171         208         214         150
   4         209         152         151         172
   4         217         213         163         162
   4         215         238         208         233
   4         216         156         155         212
   4         220         217         162         161
   4         188         219         251         189
   4         222         220         161         168
   4         168         167         221         222
   4         223         221         167         160
   4         225         235         165         157
   4         228         178         180         253
   4         232         143         142         197
   4         201         229         255         147
   4         146         237         238         234
   4         205         235         225         249
   4           8           7         243         247
   4         247         244           9           8
   4         145         245         244         247
   4         250         248         140         241
   4         138         248         250         139
   4         252         192         147         255
   4         253         195         169         228
   4         157         226         254         225
   4         256         229         165         235
   4         170         189         218         215

CELL_TYPES      217
    9     9     9     9     9     9     9     9     9     9     9     9     9     9     9     9     9     9     9     9     9     9     9     9     9     9     9     9     9     9     9     9     9     9     9     9     9     9     9     9     9     9     9     9     9     9     9     9     9     9     9     9     9     9     9     9     9     9     9     9     9     9     9     9     9     9     9     9     9     9     9     9     9     9     9     9     9     9     9     9     9     9     9     9     9     9     9     9     9     9     9     9     9     9     9     9     9     9     9     9     9     9     9     9     9     9     9     9     9     9     9     9     9     9     9     9     9     9     9     9     9     9     9     9     9     9     9     9     9     9     9     9     9     9     9     9     9     9     9     9     9     9     9     9     9     9     9     9     9     9     9     9     9     9     9     9     9     9     9     9     9     9     9     9     9     9     9     9     9     9     9     9     9     9     9     9     9     9     9     9     9     9     9     9     9     9     9     9     9     9     9     9     9     9     9     9     9     9     9     9     9     9     9     9     9     9     9     9     9     9     9     9     9     9     9     9     9 
POINT_DATA      258
SCALARS Ux float
LOOKUP_TABLE default
1.00000000E+00
9.23224317E-01
4.63920647E-01
2.08166817E-17
6.59194921E-17
1.12757026E-16
1.11998084E-16
1.83880688E-16
1.10805462E-16
7.80625564E-18
6.41847686E-17
8.67361738E-17
4.61322585E-01
1.00000000E+00
9.98568450E-01
9.93464336E-01
9.87052440E-01
9.77535792E-01
9.65022052E-01
9.51301388E-01
9.41055253E-01
9.32205926E-01
9.26209756E-01
9.21598163E-01
9.15994421E-01
9.04412282E-01
8.94573839E-01
8.60674076E-01
8.40012011E-01
8.08974469E-01
7.73409418E-01
7.38835780E-01
7.01032198E-01
6.63725069E-01
6.26504154E-01
5.87202010E-01
5.55954686E-01
3.81900968E-01
3.36696500E-01
2.97028872E-01
2.59202918E-01
2.22059657E-01
1.85169336E-01
1.48040166E-01
1.10119570E-01
7.19961474E-02
4.59639810E-01
4.47874126E-01
4.36743483E-01
4.15648047E-01
3.89762441E-01
3.59976215E-01
3.26992077E-01
2.91741447E-01
2.55750336E-01
2.19600393E-01
1.80255953E-01
1.45167583E-01
1.04941777E-01
6.88678995E-02
8.83495682E-01
8.35989039E-01
7.88495899E-01
7.45008202E-01
7.07520190E-01
6.73273071E-01
6.37032288E-01
5.99964296E-01
5.64607756E-01
5.36422295E-01
5.12231610E-01
4.91786294E-01
4.74651631E-01
4.68318051E-01
1.00000000E+00
1.00000000E+00
1.00000000E+00
1.00000000E+00
1.00000000E+00
1.00000000E+00
2.77887913E-02
1.41391240E-02
1.30187128E-02
4.39426227E-02
3.76652393E-01
6.27660976E-01
3.56482538E-01
9.77553407E-01
9.65533986E-01
9.50391514E-01
9.39810894E-01
9.31727289E-01
8.80238267E-01
8.65955086E-01
8.43358666E-01
8.06193426E-01
7.76457446E-01
7.37856471E-01
7.00977631E-01
6.64050948E-01
5.92146229E-01
5.55853228E-01
5.26279970E-01
3.18233437E-01
2.80974681E-01
2.44654270E-01
2.09136635E-01
1.74196446E-01
1.38731632E-01
1.02192757E-01
5.77838083E-02
6.45919195E-02
4.39762214E-01
4.19324457E-01
3.93869756E-01
3.63649981E-01
3.32756848E-01
2.97201889E-01
2.63035217E-01
2.27611968E-01
1.93202722E-01
1.46700085E-01
1.17005501E-01
8.28915649E-02
8.77590585E-01
8.31761037E-01
7.84826267E-01
7.39083239E-01
7.07407311E-01
6.71250697E-01
6.39336425E-01
5.97161266E-01
5.61576905E-01
5.32478108E-01
5.11748918E-01
4.85444939E-01
4.71402221E-01
4.59901308E-01
9.86787999E-01
9.94074063E-01
9.92859203E-01
9.61065463E-01
9.91203559E-01
9.83628575E-01
6.82657695E-02
2.24702612E-02
4.56004750E-01
9.37141460E-01
4.54606336E-01
4.46642560E-01
4.00971042E-01
3.63449560E-01
3.34148280E-01
3.03000684E-01
2.71638207E-01
2.37403115E-01
2.03484917E-01
8.66559015E-01
8.27063802E-01
8.13162067E-01
7.84947667E-01
6.69250612E-01
6.26436818E-01
5.93836134E-01
9.13716780E-01
9.03091679E-01
8.41745522E-01
7.42118181E-01
7.13087483E-01
1.27883502E-01
4.94645917E-01
4.26245185E-01
3.75298242E-01
3.33398113E-01
3.00227664E-01
2.65010697E-01
2.29834575E-01
1.95747337E-01
1.61852550E-01
1.72357128E-01
1.33128541E-01
7.73209506E-01
7.39591054E-01
7.01980937E-01
6.61532680E-01
6.31156490E-01
5.98713041E-01
5.69443816E-01
5.64951409E-01
5.29030337E-01
4.74081853E-01
9.64995102E-01
9.54472062E-01
8.42979126E-01
9.29160977E-02
1.00450517E-01
9.35897235E-01
9.74116593E-01
9.57048872E-01
6.05993598E-02
4.64313543E-01
9.24494015E-01
9.97529772E-01
4.49441472E-02
7.45138132E-02
9.30498290E-01
8.56400529E-01
5.20501959E-01
4.35702946E-01
3.33345542E-01
3.17171711E-01
2.84407090E-01
2.51472796E-01
6.07107508E-01
4.05745565E-01
4.72524805E-01
2.16783146E-01
6.32082140E-01
4.95528874E-01
5.50695832E-01
6.70248761E-01
7.47934399E-01
6.98249269E-01
7.73259520E-01
8.13863065E-01
8.91804380E-01
8.57105994E-01
1.82629827E-01
1.50427650E-01
9.18237781E-01
8.80442715E-01
8.97745622E-02
9.66468984E-01
4.62581398E-01
4.76139826E-01
9.06420665E-01
9.27184892E-01
4.43270930E-01
4.56493539E-01
9.20436262E-01
5.16583689E-02
9.97455942E-01
9.23930816E-01
6.28671876E-03
6.86080458E-03
1.96401476E-02
4.67319348E-02
9.11219046E-03
9.91086158E-01
9.01164552E-01
9.93781026E-01
5.29407623E-01
9.40181400E-01
1.12424751E-01
8.69696736E-01
9.29288302E-01
9.24135066E-01
5.69270569E-01
