# vtk DataFile Version 1.0
ECM-CELL DIFFUSION-MECHANICS
ASCII

DATASET UNSTRUCTURED_GRID
POINTS    10201 float
0.00000000E+00 0.00000000E+00 4.80000000E+01
1.00000000E-02 0.00000000E+00 4.80000000E+01
2.00000000E-02 0.00000000E+00 4.80000000E+01
3.00000000E-02 0.00000000E+00 4.80000000E+01
4.00000000E-02 0.00000000E+00 4.80000000E+01
5.00000000E-02 0.00000000E+00 4.80000000E+01
6.00000000E-02 0.00000000E+00 4.80000000E+01
7.00000000E-02 0.00000000E+00 4.80000000E+01
8.00000000E-02 0.00000000E+00 4.80000000E+01
9.00000000E-02 0.00000000E+00 4.80000000E+01
1.00000000E-01 0.00000000E+00 4.80000000E+01
1.10000000E-01 0.00000000E+00 4.80000000E+01
1.20000000E-01 0.00000000E+00 4.80000000E+01
1.30000000E-01 0.00000000E+00 4.80000000E+01
1.40000000E-01 0.00000000E+00 4.80000000E+01
1.50000000E-01 0.00000000E+00 4.80000000E+01
1.60000000E-01 0.00000000E+00 4.80000000E+01
1.70000000E-01 0.00000000E+00 4.80000000E+01
1.80000000E-01 0.00000000E+00 4.80000000E+01
1.90000000E-01 0.00000000E+00 4.80000000E+01
2.00000000E-01 0.00000000E+00 4.80000000E+01
2.10000000E-01 0.00000000E+00 4.80000000E+01
2.20000000E-01 0.00000000E+00 4.80000000E+01
2.30000000E-01 0.00000000E+00 4.80000000E+01
2.40000000E-01 0.00000000E+00 4.80000000E+01
2.50000000E-01 0.00000000E+00 4.80000000E+01
2.60000000E-01 0.00000000E+00 4.80000000E+01
2.70000000E-01 0.00000000E+00 4.80000000E+01
2.80000000E-01 0.00000000E+00 4.80000000E+01
2.90000000E-01 0.00000000E+00 4.80000000E+01
3.00000000E-01 0.00000000E+00 4.80000000E+01
3.10000000E-01 0.00000000E+00 4.80000000E+01
3.20000000E-01 0.00000000E+00 4.80000000E+01
3.30000000E-01 0.00000000E+00 4.80000000E+01
3.40000000E-01 0.00000000E+00 4.80000000E+01
3.50000000E-01 0.00000000E+00 4.80000000E+01
3.60000000E-01 0.00000000E+00 4.80000000E+01
3.70000000E-01 0.00000000E+00 4.80000000E+01
3.80000000E-01 0.00000000E+00 4.80000000E+01
3.90000000E-01 0.00000000E+00 4.80000000E+01
4.00000000E-01 0.00000000E+00 4.80000000E+01
4.10000000E-01 0.00000000E+00 4.80000000E+01
4.20000000E-01 0.00000000E+00 4.80000000E+01
4.30000000E-01 0.00000000E+00 4.80000000E+01
4.40000000E-01 0.00000000E+00 4.80000000E+01
4.50000000E-01 0.00000000E+00 4.80000000E+01
4.60000000E-01 0.00000000E+00 4.80000000E+01
4.70000000E-01 0.00000000E+00 4.80000000E+01
4.80000000E-01 0.00000000E+00 4.80000000E+01
4.90000000E-01 0.00000000E+00 4.80000000E+01
5.00000000E-01 0.00000000E+00 4.80000000E+01
5.10000000E-01 0.00000000E+00 4.80000000E+01
5.20000000E-01 0.00000000E+00 4.80000000E+01
5.30000000E-01 0.00000000E+00 4.80000000E+01
5.40000000E-01 0.00000000E+00 4.80000000E+01
5.50000000E-01 0.00000000E+00 4.80000000E+01
5.60000000E-01 0.00000000E+00 4.80000000E+01
5.70000000E-01 0.00000000E+00 4.80000000E+01
5.80000000E-01 0.00000000E+00 4.80000000E+01
5.90000000E-01 0.00000000E+00 4.80000000E+01
6.00000000E-01 0.00000000E+00 4.80000000E+01
6.10000000E-01 0.00000000E+00 4.80000000E+01
6.20000000E-01 0.00000000E+00 4.80000000E+01
6.30000000E-01 0.00000000E+00 4.80000000E+01
6.40000000E-01 0.00000000E+00 4.80000000E+01
6.50000000E-01 0.00000000E+00 4.80000000E+01
6.60000000E-01 0.00000000E+00 4.80000000E+01
6.70000000E-01 0.00000000E+00 4.80000000E+01
6.80000000E-01 0.00000000E+00 4.80000000E+01
6.90000000E-01 0.00000000E+00 4.80000000E+01
7.00000000E-01 0.00000000E+00 4.80000000E+01
7.10000000E-01 0.00000000E+00 4.80000000E+01
7.20000000E-01 0.00000000E+00 4.80000000E+01
7.30000000E-01 0.00000000E+00 4.80000000E+01
7.40000000E-01 0.00000000E+00 4.80000000E+01
7.50000000E-01 0.00000000E+00 4.80000000E+01
7.60000000E-01 0.00000000E+00 4.80000000E+01
7.70000000E-01 0.00000000E+00 4.80000000E+01
7.80000000E-01 0.00000000E+00 4.80000000E+01
7.90000000E-01 0.00000000E+00 4.80000000E+01
8.00000000E-01 0.00000000E+00 4.80000000E+01
8.10000000E-01 0.00000000E+00 4.80000000E+01
8.20000000E-01 0.00000000E+00 4.80000000E+01
8.30000000E-01 0.00000000E+00 4.80000000E+01
8.40000000E-01 0.00000000E+00 4.80000000E+01
8.50000000E-01 0.00000000E+00 4.80000000E+01
8.60000000E-01 0.00000000E+00 4.80000000E+01
8.70000000E-01 0.00000000E+00 4.80000000E+01
8.80000000E-01 0.00000000E+00 4.80000000E+01
8.90000000E-01 0.00000000E+00 4.80000000E+01
9.00000000E-01 0.00000000E+00 4.80000000E+01
9.10000000E-01 0.00000000E+00 4.80000000E+01
9.20000000E-01 0.00000000E+00 4.80000000E+01
9.30000000E-01 0.00000000E+00 4.80000000E+01
9.40000000E-01 0.00000000E+00 4.80000000E+01
9.50000000E-01 0.00000000E+00 4.80000000E+01
9.60000000E-01 0.00000000E+00 4.80000000E+01
9.70000000E-01 0.00000000E+00 4.80000000E+01
9.80000000E-01 0.00000000E+00 4.80000000E+01
9.90000000E-01 0.00000000E+00 4.80000000E+01
1.00000000E+00 0.00000000E+00 4.80000000E+01
0.00000000E+00 1.00000000E-02 4.80000000E+01
1.00000000E-02 1.00000000E-02 4.80000000E+01
2.00000000E-02 1.00000000E-02 4.80000000E+01
3.00000000E-02 1.00000000E-02 4.80000000E+01
4.00000000E-02 1.00000000E-02 4.80000000E+01
5.00000000E-02 1.00000000E-02 4.80000000E+01
6.00000000E-02 1.00000000E-02 4.80000000E+01
7.00000000E-02 1.00000000E-02 4.80000000E+01
8.00000000E-02 1.00000000E-02 4.80000000E+01
9.00000000E-02 1.00000000E-02 4.80000000E+01
1.00000000E-01 1.00000000E-02 4.80000000E+01
1.10000000E-01 1.00000000E-02 4.80000000E+01
1.20000000E-01 1.00000000E-02 4.80000000E+01
1.30000000E-01 1.00000000E-02 4.80000000E+01
1.40000000E-01 1.00000000E-02 4.80000000E+01
1.50000000E-01 1.00000000E-02 4.80000000E+01
1.60000000E-01 1.00000000E-02 4.80000000E+01
1.70000000E-01 1.00000000E-02 4.80000000E+01
1.80000000E-01 1.00000000E-02 4.80000000E+01
1.90000000E-01 1.00000000E-02 4.80000000E+01
2.00000000E-01 1.00000000E-02 4.80000000E+01
2.10000000E-01 1.00000000E-02 4.80000000E+01
2.20000000E-01 1.00000000E-02 4.80000000E+01
2.30000000E-01 1.00000000E-02 4.80000000E+01
2.40000000E-01 1.00000000E-02 4.80000000E+01
2.50000000E-01 1.00000000E-02 4.80000000E+01
2.60000000E-01 1.00000000E-02 4.80000000E+01
2.70000000E-01 1.00000000E-02 4.80000000E+01
2.80000000E-01 1.00000000E-02 4.80000000E+01
2.90000000E-01 1.00000000E-02 4.80000000E+01
3.00000000E-01 1.00000000E-02 4.80000000E+01
3.10000000E-01 1.00000000E-02 4.80000000E+01
3.20000000E-01 1.00000000E-02 4.80000000E+01
3.30000000E-01 1.00000000E-02 4.80000000E+01
3.40000000E-01 1.00000000E-02 4.80000000E+01
3.50000000E-01 1.00000000E-02 4.80000000E+01
3.60000000E-01 1.00000000E-02 4.80000000E+01
3.70000000E-01 1.00000000E-02 4.80000000E+01
3.80000000E-01 1.00000000E-02 4.80000000E+01
3.90000000E-01 1.00000000E-02 4.80000000E+01
4.00000000E-01 1.00000000E-02 4.80000000E+01
4.10000000E-01 1.00000000E-02 4.80000000E+01
4.20000000E-01 1.00000000E-02 4.80000000E+01
4.30000000E-01 1.00000000E-02 4.80000000E+01
4.40000000E-01 1.00000000E-02 4.80000000E+01
4.50000000E-01 1.00000000E-02 4.80000000E+01
4.60000000E-01 1.00000000E-02 4.80000000E+01
4.70000000E-01 1.00000000E-02 4.80000000E+01
4.80000000E-01 1.00000000E-02 4.80000000E+01
4.90000000E-01 1.00000000E-02 4.80000000E+01
5.00000000E-01 1.00000000E-02 4.80000000E+01
5.10000000E-01 1.00000000E-02 4.80000000E+01
5.20000000E-01 1.00000000E-02 4.80000000E+01
5.30000000E-01 1.00000000E-02 4.80000000E+01
5.40000000E-01 1.00000000E-02 4.80000000E+01
5.50000000E-01 1.00000000E-02 4.80000000E+01
5.60000000E-01 1.00000000E-02 4.80000000E+01
5.70000000E-01 1.00000000E-02 4.80000000E+01
5.80000000E-01 1.00000000E-02 4.80000000E+01
5.90000000E-01 1.00000000E-02 4.80000000E+01
6.00000000E-01 1.00000000E-02 4.80000000E+01
6.10000000E-01 1.00000000E-02 4.80000000E+01
6.20000000E-01 1.00000000E-02 4.80000000E+01
6.30000000E-01 1.00000000E-02 4.80000000E+01
6.40000000E-01 1.00000000E-02 4.80000000E+01
6.50000000E-01 1.00000000E-02 4.80000000E+01
6.60000000E-01 1.00000000E-02 4.80000000E+01
6.70000000E-01 1.00000000E-02 4.80000000E+01
6.80000000E-01 1.00000000E-02 4.80000000E+01
6.90000000E-01 1.00000000E-02 4.80000000E+01
7.00000000E-01 1.00000000E-02 4.80000000E+01
7.10000000E-01 1.00000000E-02 4.80000000E+01
7.20000000E-01 1.00000000E-02 4.80000000E+01
7.30000000E-01 1.00000000E-02 4.80000000E+01
7.40000000E-01 1.00000000E-02 4.80000000E+01
7.50000000E-01 1.00000000E-02 4.80000000E+01
7.60000000E-01 1.00000000E-02 4.80000000E+01
7.70000000E-01 1.00000000E-02 4.80000000E+01
7.80000000E-01 1.00000000E-02 4.80000000E+01
7.90000000E-01 1.00000000E-02 4.80000000E+01
8.00000000E-01 1.00000000E-02 4.80000000E+01
8.10000000E-01 1.00000000E-02 4.80000000E+01
8.20000000E-01 1.00000000E-02 4.80000000E+01
8.30000000E-01 1.00000000E-02 4.80000000E+01
8.40000000E-01 1.00000000E-02 4.80000000E+01
8.50000000E-01 1.00000000E-02 4.80000000E+01
8.60000000E-01 1.00000000E-02 4.80000000E+01
8.70000000E-01 1.00000000E-02 4.80000000E+01
8.80000000E-01 1.00000000E-02 4.80000000E+01
8.90000000E-01 1.00000000E-02 4.80000000E+01
9.00000000E-01 1.00000000E-02 4.80000000E+01
9.10000000E-01 1.00000000E-02 4.80000000E+01
9.20000000E-01 1.00000000E-02 4.80000000E+01
9.30000000E-01 1.00000000E-02 4.80000000E+01
9.40000000E-01 1.00000000E-02 4.80000000E+01
9.50000000E-01 1.00000000E-02 4.80000000E+01
9.60000000E-01 1.00000000E-02 4.80000000E+01
9.70000000E-01 1.00000000E-02 4.80000000E+01
9.80000000E-01 1.00000000E-02 4.80000000E+01
9.90000000E-01 1.00000000E-02 4.80000000E+01
1.00000000E+00 1.00000000E-02 4.80000000E+01
0.00000000E+00 2.00000000E-02 4.80000000E+01
1.00000000E-02 2.00000000E-02 4.80000000E+01
2.00000000E-02 2.00000000E-02 4.80000000E+01
3.00000000E-02 2.00000000E-02 4.80000000E+01
4.00000000E-02 2.00000000E-02 4.80000000E+01
5.00000000E-02 2.00000000E-02 4.80000000E+01
6.00000000E-02 2.00000000E-02 4.80000000E+01
7.00000000E-02 2.00000000E-02 4.80000000E+01
8.00000000E-02 2.00000000E-02 4.80000000E+01
9.00000000E-02 2.00000000E-02 4.80000000E+01
1.00000000E-01 2.00000000E-02 4.80000000E+01
1.10000000E-01 2.00000000E-02 4.80000000E+01
1.20000000E-01 2.00000000E-02 4.80000000E+01
1.30000000E-01 2.00000000E-02 4.80000000E+01
1.40000000E-01 2.00000000E-02 4.80000000E+01
1.50000000E-01 2.00000000E-02 4.80000000E+01
1.60000000E-01 2.00000000E-02 4.80000000E+01
[...]
POINT_DATA    10201
SCALARS Ux float
LOOKUP_TABLE default
-2.37587727E-14
1.28785871E-14
-9.49240686E-15
-5.60662627E-15
-6.57807142E-15
-2.08166817E-16
-1.91513472E-15
4.19109192E-15
-7.29971639E-15
-9.72832925E-15
3.60822483E-16
8.25728375E-15
-4.66987560E-15
-5.44009282E-15
1.74860126E-15
-9.85322934E-15
-9.15933995E-16
-3.03923553E-15
-5.59621793E-15
-3.37230244E-15
-4.39578929E-15
1.25247035E-15
-2.21003771E-15
1.91513472E-15
-1.37390099E-15
1.18308141E-15
-1.67574288E-15
2.55004351E-15
9.78384040E-16
-1.83880688E-16
-7.20604132E-15
-7.45931095E-17
3.23872873E-15
-3.08780779E-16
-1.23338839E-15
2.78596590E-15
-4.11823353E-15
-9.15933995E-16
-2.44596010E-16
5.55111512E-16
-2.16320017E-15
-4.95783969E-15
-4.42527959E-15
-1.16573418E-15
-2.91953961E-15
7.63278329E-16
-4.85549101E-15
-7.21644966E-16
-3.74700271E-15
-1.56298585E-15
-2.50841015E-15
-3.84761667E-15
-2.52749210E-15
-3.90486254E-15
-3.15199256E-15
-2.43555176E-15
-1.25420507E-15
-2.80851731E-15
-1.90299165E-15
-1.43635104E-15
-1.91686944E-15
-1.26634814E-15
-1.12063137E-15
-2.20483354E-15
-2.42687814E-15
-1.51875040E-15
-1.61416019E-15
-2.35575448E-15
-2.35315240E-15
-1.58293517E-15
-5.39499001E-16
-1.48579066E-15
-1.88824650E-15
-2.21263979E-15
-1.79023463E-15
-4.02455846E-16
-1.41900380E-15
-9.92261828E-16
-5.23886490E-16
-1.91079791E-15
-2.20223145E-15
-4.36282954E-16
-5.43835810E-16
-1.12149873E-15
-1.88130761E-15
3.34801631E-16
-9.54097912E-16
-9.45424294E-16
-2.25774260E-15
-6.92154667E-16
-1.34180861E-15
-1.41119755E-15
-1.36609474E-15
-8.56953397E-16
-1.21430643E-15
-7.80625564E-16
-1.16573418E-15
-2.42774550E-15
-2.59948313E-15
-1.74426446E-15
-8.77770079E-16
-2.77555756E-15
2.68371263E-01
2.12106056E-01
1.68794210E-01
1.37539115E-01
1.15156694E-01
9.86323754E-02
8.60525168E-02
7.62087738E-02
6.83226588E-02
6.18772732E-02
5.65189597E-02
5.19989415E-02
4.81377983E-02
4.48032228E-02
4.18957029E-02
3.93390646E-02
3.70740760E-02
3.50540254E-02
3.32416060E-02
3.16066790E-02
3.01246423E-02
2.87752228E-02
2.75415698E-02
2.64095658E-02
2.53672969E-02
2.44046413E-02
2.35129457E-02
2.26847700E-02
2.19136827E-02
2.11940961E-02
2.05211336E-02
1.98905199E-02
1.92984923E-02
1.87417256E-02
1.82172716E-02
1.77225067E-02
1.72550891E-02
1.68129220E-02
1.63941229E-02
1.59969965E-02
1.56200131E-02
1.52617880E-02
1.49210658E-02
1.45967052E-02
1.42876668E-02
1.39930019E-02
1.37118433E-02
1.34433964E-02
1.31869323E-02
1.29417810E-02
1.27073259E-02
1.24829985E-02
1.22682742E-02
1.20626679E-02
1.18657307E-02
1.16770468E-02
1.14962303E-02
1.13229229E-02
1.11567917E-02
1.09975267E-02
1.08448393E-02
1.06984606E-02
1.05581397E-02
1.04236425E-02
1.02947501E-02
1.01712583E-02
1.00529758E-02
9.93972402E-03
9.83133552E-03
9.72765375E-03
9.62853209E-03
9.53383323E-03
9.44342863E-03
9.35719788E-03
9.27502829E-03
9.19681434E-03
9.12245733E-03
9.05186497E-03
8.98495099E-03
8.92163486E-03
8.86184148E-03
8.80550086E-03
8.75254795E-03
8.70292233E-03
8.65656805E-03
8.61343341E-03
8.57347079E-03
8.53663651E-03
8.50289064E-03
8.47219693E-03
8.44452264E-03
8.41983844E-03
8.39811835E-03
8.37933962E-03
8.36348269E-03
8.35053109E-03
8.34047145E-03
8.33329337E-03
8.32898947E-03
8.32755533E-03
1.00000000E+00
5.25706688E-01
4.09157358E-01
3.24818934E-01
2.66732216E-01
2.24810867E-01
1.93538982E-01
1.69499943E-01
1.50540061E-01
1.35255011E-01
1.22700151E-01
1.12221405E-01
1.03353907E-01
9.57594623E-02
8.91868530E-02
8.34459657E-02
7.83905167E-02
7.39062560E-02
6.99027449E-02
6.63075202E-02
6.30618785E-02
6.01177849E-02
5.74355732E-02
5.49822123E-02
5.27299841E-02
5.06554630E-02
4.87387213E-02
4.69627035E-02
4.53127298E-02
4.37760987E-02
4.23417666E-02
4.10000872E-02
3.97425986E-02
3.85618479E-02
3.74512461E-02
3.64049473E-02
3.54177472E-02
3.44849985E-02
3.36025383E-02
3.27666275E-02
3.19738985E-02
3.12213104E-02
3.05061111E-02
2.98258037E-02
2.91781183E-02
2.85609869E-02
2.79725218E-02
2.74109966E-02
2.68748296E-02
2.63625694E-02
2.58728818E-02
2.54045385E-02
2.49564072E-02
2.45274423E-02
2.41166775E-02
2.37232181E-02
2.33462353E-02
2.29849598E-02
2.26386775E-02
2.23067243E-02
2.19884823E-02
2.16833760E-02
2.13908690E-02
2.11104610E-02
2.08416848E-02
2.05841041E-02
2.03373113E-02
2.01009249E-02
1.98745883E-02
1.96579676E-02
1.94507505E-02
1.92526443E-02
1.90633749E-02
1.88826860E-02
1.87103370E-02
1.85461032E-02
1.83897739E-02
1.82411520E-02
1.81000535E-02
1.79663059E-02
1.78397487E-02
1.77202318E-02
1.76076156E-02
1.75017701E-02
1.74025747E-02
1.73099178E-02
1.72236961E-02
1.71438145E-02
1.70701858E-02
1.70027303E-02
1.69413756E-02
1.68860563E-02
1.68367138E-02
1.67932964E-02
1.67557585E-02
1.67240611E-02
1.66981712E-02
1.66780623E-02
1.66637135E-02
1.66551102E-02
1.66522434E-02
1.00000000E+00
7.50063811E-01
5.65955013E-01
4.57442888E-01
3.80824614E-01
3.24470404E-01
2.81592538E-01
2.48096516E-01
2.21337779E-01
1.99547293E-01
1.81506096E-01
1.66352514E-01
1.53463398E-01
1.42378775E-01
1.32752803E-01
1.24321094E-01
1.16878468E-01
1.10263507E-01
1.04347646E-01
9.90273234E-02
9.42182589E-02
8.98512133E-02
8.58688111E-02
8.22231289E-02
7.88738430E-02
7.57867932E-02
7.29328586E-02
7.02870682E-02
6.78278929E-02
6.55366764E-02
6.33971751E-02
6.13951832E-02
5.95182247E-02
5.77553001E-02
5.60966758E-02
5.45337082E-02
5.30586968E-02
5.16647595E-02
5.03457282E-02
4.90960587E-02
4.79107550E-02
4.67853037E-02
4.57156174E-02
4.46979865E-02
4.37290372E-02
4.28056943E-02
4.19251498E-02
4.10848348E-02
4.02823950E-02
3.95156691E-02
3.87826701E-02
3.80815681E-02
3.74106756E-02
3.67684343E-02
3.61534034E-02
3.55642490E-02
3.49997346E-02
3.44587129E-02
3.39401183E-02
3.34429597E-02
3.29663151E-02
3.25093253E-02
3.20711895E-02
3.16511606E-02
3.12485411E-02
3.08626792E-02
3.04929660E-02
3.01388317E-02
2.97997436E-02
2.94752029E-02
2.91647425E-02
2.88679253E-02
2.85843417E-02
2.83136083E-02
2.80553659E-02
2.78092781E-02
2.75750301E-02
2.73523275E-02
2.71408947E-02
2.69404742E-02
2.67508256E-02
2.65717247E-02
2.64029626E-02
2.62443450E-02
2.60956916E-02
2.59568351E-02
2.58276213E-02
2.57079078E-02
2.55975643E-02
2.54964715E-02
2.54045211E-02
2.53216153E-02
2.52476664E-02
2.51825970E-02
2.51263389E-02
2.50788338E-02
2.50400325E-02
2.50098950E-02
2.49883903E-02
2.49754963E-02
2.49711997E-02
1.00000000E+00
8.24559578E-01
6.75131850E-01
5.60758997E-01
4.76164123E-01
4.11398485E-01
3.60701408E-01
3.20223696E-01
2.87337719E-01
2.60201990E-01
2.37499538E-01
2.18270863E-01
2.01804755E-01
1.87565504E-01
1.75143516E-01
1.64221255E-01
1.54549379E-01
1.45929768E-01
1.38203276E-01
1.31240770E-01
1.24936493E-01
1.19203088E-01
1.13967818E-01
1.09169670E-01
1.04757120E-01
1.00686372E-01
9.69199839E-02
9.34257638E-02
9.01758921E-02
8.71462106E-02
8.43156452E-02
8.16657331E-02
7.91802350E-02
7.68448124E-02
7.46467605E-02
7.25747839E-02
7.06188083E-02
6.87698213E-02
6.70197376E-02
6.53612839E-02
6.37879005E-02
6.22936571E-02
6.08731794E-02
5.95215871E-02
5.82344382E-02
5.70076826E-02
5.58376195E-02
5.47208619E-02
5.36543041E-02
5.26350942E-02
5.16606088E-02
5.07284311E-02
4.98363318E-02
4.89822515E-02
4.81642853E-02
4.73806694E-02
4.66297683E-02
4.59100638E-02
4.52201457E-02
4.45587023E-02
4.39245124E-02
4.33164385E-02
4.27334197E-02
4.21744662E-02
4.16386538E-02
4.11251188E-02
4.06330538E-02
4.01617039E-02
3.97103623E-02
3.92783676E-02
3.88651006E-02
3.84699814E-02
3.80924665E-02
3.77320473E-02
3.73882472E-02
3.70606198E-02
3.67487475E-02
3.64522392E-02
3.61707292E-02
3.59038759E-02
3.56513600E-02
3.54128837E-02
3.51881698E-02
3.49769603E-02
3.47790156E-02
3.45941138E-02
3.44220499E-02
3.42626350E-02
3.41156958E-02
3.39810739E-02
3.38586255E-02
3.37482206E-02
3.36497429E-02
3.35630893E-02
3.34881695E-02
3.34249059E-02
3.33732331E-02
3.33330979E-02
3.33044593E-02
3.32872878E-02
3.32815659E-02
1.00000000E+00
8.64331384E-01
7.40994563E-01
6.36948567E-01
5.52610358E-01
4.84858672E-01
4.29965764E-01
3.85005191E-01
3.47752654E-01
3.16536637E-01
2.90098203E-01
2.67482709E-01
2.47959691E-01
2.30964585E-01
2.16056507E-01
2.02887604E-01
1.91180667E-01
1.80712669E-01
1.71302535E-01
1.62801990E-01
1.55088636E-01
1.48060668E-01
1.41632810E-01
1.35733152E-01
1.30300680E-01
1.25283319E-01
1.20636380E-01
1.16321317E-01
1.12304718E-01
1.08557490E-01
1.05054195E-01
1.01772497E-01
9.86927094E-02
9.57974198E-02
9.30711737E-02
9.05002100E-02
8.80722380E-02
8.57762487E-02
8.36023535E-02
8.15416473E-02
7.95860906E-02
7.77284082E-02
7.59620017E-02
7.42808738E-02
7.26795622E-02
7.11530823E-02
6.96968772E-02
6.83067732E-02
6.69789414E-02
6.57098636E-02
6.44963018E-02
6.33352721E-02
6.22240203E-02
6.11600012E-02
6.01408598E-02
5.91644142E-02
5.82286410E-02
5.73316612E-02
5.64717287E-02
5.56472190E-02
5.48566194E-02
5.40985201E-02
5.33716064E-02
5.26746510E-02
5.20065077E-02
5.13661056E-02
5.07524429E-02
5.01645826E-02
4.96016479E-02
4.90628178E-02
4.85473233E-02
4.80544444E-02
4.75835064E-02
4.71338773E-02
4.67049652E-02
4.62962155E-02
4.59071092E-02
4.55371605E-02
4.51859148E-02
4.48529473E-02
4.45378614E-02
4.42402868E-02
4.39598788E-02
4.36963166E-02
4.34493023E-02
4.32185600E-02
4.30038347E-02
4.28048914E-02
4.26215147E-02
4.24535075E-02
4.23006908E-02
4.21629031E-02
4.20399996E-02
4.19318520E-02
4.18383480E-02
4.17593911E-02
4.16948999E-02
4.16448083E-02
4.16090650E-02
4.15876336E-02
4.15804923E-02
1.00000000E+00
8.89047329E-01
7.84917756E-01
6.92261039E-01
6.12749853E-01
5.45743126E-01
4.89536260E-01
4.42259271E-01
4.02264756E-01
3.68191968E-01
3.38946271E-01
3.13655648E-01
2.91626703E-01
2.72306763E-01
2.55253241E-01
2.40109591E-01
2.26586674E-01
2.14448399E-01
2.03500654E-01
1.93582753E-01
1.84560802E-01
1.76322520E-01
1.68773176E-01
1.61832385E-01
1.55431558E-01
1.49511863E-01
1.44022592E-01
1.38919830E-01
1.34165376E-01
1.29725862E-01
1.25572024E-01
1.21678101E-01
1.18021333E-01
1.14581544E-01
1.11340791E-01
1.08283068E-01
1.05394056E-01
1.02660908E-01
1.00072067E-01
9.76171143E-02
9.52866306E-02
9.30720826E-02
9.09657229E-02
8.89605027E-02
8.70499961E-02
8.52283346E-02
8.34901482E-02
8.18305154E-02
8.02449178E-02
7.87292010E-02
7.72795393E-02
7.58924046E-02
7.45645392E-02
7.32929308E-02
7.20747909E-02
7.09075347E-02
6.97887642E-02
6.87162517E-02
6.76879261E-02
6.67018599E-02
6.57562575E-02
6.48494453E-02
6.39798616E-02
6.31460485E-02
6.23466438E-02
6.15803744E-02
6.08460494E-02
6.01425545E-02
5.94688464E-02
5.88239484E-02
5.82069456E-02
5.76169807E-02
5.70532506E-02
5.65150028E-02
5.60015324E-02
5.55121789E-02
5.50463239E-02
5.46033886E-02
5.41828314E-02
5.37841461E-02
5.34068598E-02
5.30505313E-02
5.27147497E-02
5.23991323E-02
5.21033241E-02
5.18269960E-02
5.15698439E-02
5.13315876E-02
5.11119700E-02
5.09107563E-02
5.07277328E-02
5.05627068E-02
5.04155057E-02
5.02859763E-02
5.01739847E-02
5.00794156E-02
5.00021721E-02
4.99421752E-02
4.98993638E-02
4.98736943E-02
4.98651407E-02
1.00000000E+00
9.05991086E-01
8.16143842E-01
7.33624241E-01
6.60099133E-01
5.95853685E-01
5.40271282E-01
4.92333085E-01
4.50945180E-01
4.15094063E-01
3.83897980E-01
3.56612960E-01
3.32620665E-01
3.11410604E-01
2.92562107E-01
2.75728169E-01
2.60621758E-01
2.47004533E-01
2.34677700E-01
2.23474650E-01
2.13255058E-01
2.03900143E-01
1.95308866E-01
1.87394865E-01
1.80083975E-01
1.73312222E-01
1.67024180E-01
1.61171627E-01
1.55712448E-01
1.50609714E-01
1.45830930E-01
1.41347404E-01
1.37133715E-01
1.33167272E-01
1.29427936E-01
1.25897704E-01
1.22560438E-01
1.19401634E-01
1.16408224E-01
1.13568406E-01
1.10871495E-01
1.08307801E-01
1.05868511E-01
1.03545603E-01
1.01331751E-01
9.92202604E-02
9.72049995E-02
9.52803431E-02
9.34411227E-02
9.16825823E-02
9.00003393E-02
8.83903494E-02
8.68488754E-02
8.53724598E-02
8.39579001E-02
8.26022264E-02
8.13026814E-02
8.00567031E-02
7.88619081E-02
7.77160773E-02
7.66171429E-02
7.55631765E-02
7.45523781E-02
7.35830670E-02
7.26536720E-02
7.17627244E-02
7.09088496E-02
7.00907614E-02
6.93072554E-02
6.85572032E-02
6.78395479E-02
6.71532990E-02
6.64975283E-02
6.58713659E-02
6.52739967E-02
6.47046569E-02
6.41626313E-02
6.36472503E-02
6.31578872E-02
6.26939563E-02
6.22549104E-02
6.18402387E-02
6.14494653E-02
6.10821475E-02
6.07378741E-02
6.04162639E-02
6.01169648E-02
5.98396524E-02
5.95840287E-02
5.93498217E-02
5.91367840E-02
5.89446922E-02
5.87733463E-02
5.86225690E-02
5.84922049E-02
5.83821206E-02
5.82922036E-02
5.82223625E-02
5.81725264E-02
5.81426449E-02
5.81326878E-02
1.00000000E+00
9.18364829E-01
8.39454932E-01
7.65489523E-01
6.97877850E-01
6.37193744E-01
5.83358235E-01
5.35892854E-01
4.94136840E-01
4.57388602E-01
4.24980910E-01
3.96313418E-01
3.70862083E-01
3.48177145E-01
3.27876127E-01
3.09635213E-01
2.93180641E-01
2.78280845E-01
2.64739595E-01
2.52390170E-01
2.41090470E-01
2.30718957E-01
2.21171296E-01
2.12357588E-01
2.04200073E-01
1.96631247E-01
1.89592290E-01
1.83031765E-01
1.76904539E-01
1.71170871E-01
1.65795661E-01
1.60747806E-01
1.55999664E-01
1.51526600E-01
1.47306594E-01
1.43319914E-01
1.39548834E-01
1.35977387E-01
1.32591161E-01
1.29377119E-01
1.26323436E-01
1.23419373E-01
1.20655152E-01
1.18021854E-01
1.15511331E-01
1.13116125E-01
1.10829398E-01
1.08644872E-01
1.06556771E-01
1.04559779E-01
1.02648988E-01
1.00819871E-01
9.90682377E-02
9.73902102E-02
9.57821941E-02
9.42408539E-02
9.27630914E-02
9.13460258E-02
8.99869761E-02
8.86834446E-02
8.74331030E-02
8.62337790E-02
8.50834441E-02
8.39802032E-02
8.29222845E-02
8.19080306E-02
8.09358904E-02
8.00044117E-02
7.91122341E-02
7.82580832E-02
7.74407645E-02
7.66591586E-02
7.59122160E-02
7.51989530E-02
7.45184476E-02
7.38698359E-02
7.32523085E-02
7.26651075E-02
7.21075237E-02
7.15788939E-02
7.10785983E-02
7.06060586E-02
7.01607359E-02
6.97421284E-02
6.93497704E-02
6.89832300E-02
6.86421081E-02
6.83260369E-02
6.80346791E-02
6.77677259E-02
6.75248970E-02
6.73059393E-02
6.71106258E-02
6.69387556E-02
6.67901525E-02
6.66646652E-02
6.65621661E-02
6.64825515E-02
6.64257412E-02
6.63916778E-02
6.63803272E-02
1.00000000E+00
9.27815523E-01
8.57513252E-01
7.90697156E-01
7.28505783E-01
6.71559538E-01
6.20024443E-01
5.73737250E-01
5.32336518E-01
4.95367165E-01
4.62350160E-01
4.32822930E-01
4.06359656E-01
3.82579286E-01
3.61146630E-01
3.41769862E-01
3.24196412E-01
3.08208340E-01
2.93617780E-01
2.80262742E-01
2.68003366E-01
2.56718675E-01
2.46303779E-01
2.36667498E-01
2.27730348E-01
2.19422841E-01
2.11684048E-01
2.04460388E-01
1.97704603E-01
1.91374893E-01
1.85434181E-01
1.79849487E-01
1.74591402E-01
1.69633626E-01
1.64952589E-01
1.60527109E-01
1.56338110E-01
1.52368372E-01
1.48602319E-01
1.45025829E-01
1.41626077E-01
1.38391390E-01
1.35311124E-01
1.32375559E-01
1.29575800E-01
1.26903696E-01
1.24351764E-01
1.21913126E-01
1.19581450E-01
1.17350897E-01
1.15216078E-01
1.13172012E-01
1.11214088E-01
1.09338035E-01
1.07539891E-01
1.05815976E-01
1.04162871E-01
1.02577394E-01
1.01056582E-01
9.95976738E-02
9.81980936E-02
9.68554367E-02
9.55674572E-02
9.43320553E-02
9.31472674E-02
9.20112560E-02
9.09223004E-02
8.98787894E-02
8.88792129E-02
8.79221559E-02
8.70062918E-02
8.61303767E-02
8.52932445E-02
8.44938017E-02
8.37310231E-02
8.30039478E-02
8.23116755E-02
8.16533629E-02
8.10282208E-02
8.04355109E-02
7.98745433E-02
7.93446741E-02
7.88453030E-02
7.83758713E-02
7.79358599E-02
7.75247879E-02
7.71422105E-02
7.67877180E-02
7.64609340E-02
7.61615148E-02
7.58891477E-02
7.56435506E-02
7.54244705E-02
7.52316832E-02
7.50649925E-02
7.49242294E-02
7.48092518E-02
7.47199441E-02
7.46562167E-02
7.46180057E-02
7.46052729E-02
1.00000000E+00
9.35278767E-01
8.71912408E-01
8.11092875E-01
7.53730621E-01
7.00404957E-01
6.51380672E-01
6.06668294E-01
5.66100141E-01
5.29401000E-01
4.96243149E-01
4.66284105E-01
4.39189960E-01
4.14648318E-01
3.92374368E-01
3.72112718E-01
3.53636785E-01
3.36746891E-01
3.21267767E-01
3.07045892E-01
2.93946893E-01
2.81853129E-01
2.70661512E-01
2.60281580E-01
2.50633809E-01
2.41648149E-01
2.33262764E-01
2.25422940E-01
2.18080154E-01
2.11191274E-01
2.04717862E-01
1.98625592E-01
1.92883731E-01
1.87464707E-01
1.82343725E-01
1.77498438E-01
1.72908669E-01
1.68556156E-01
1.64424342E-01
1.60498185E-01
1.56763995E-01
1.53209291E-01
1.49822670E-01
1.46593705E-01
1.43512836E-01
1.40571294E-01
1.37761016E-01
1.35074583E-01
1.32505153E-01
1.30046416E-01
1.27692539E-01
1.25438123E-01
1.23278171E-01
1.21208046E-01
1.19223445E-01
1.17320368E-01
1.15495095E-01
1.13744164E-01
1.12064346E-01
1.10452632E-01
1.08906213E-01
1.07422466E-01
1.05998938E-01
1.04633335E-01
1.03323513E-01
1.02067462E-01
1.00863300E-01
9.97092639E-02
9.86037016E-02
9.75450632E-02
9.65318957E-02
9.55628362E-02
9.46366064E-02
9.37520076E-02
9.29079153E-02
9.21032756E-02
9.13371006E-02
9.06084648E-02
8.99165018E-02
8.92604009E-02
8.86394045E-02
8.80528054E-02
8.74999440E-02
8.69802064E-02
8.64930223E-02
8.60378629E-02
8.56142393E-02
8.52217011E-02
8.48598346E-02
8.45282616E-02
8.42266384E-02
8.39546544E-02
8.37120317E-02
8.34985234E-02
8.33139137E-02
8.31580168E-02
8.30306763E-02
8.29317650E-02
8.28611842E-02
8.28188638E-02
8.28047616E-02
1.00000000E+00
9.41326962E-01
8.83661991E-01
8.27912737E-01
7.74809055E-01
7.24862868E-01
6.78366674E-01
6.35421351E-01
5.95979307E-01
5.59890242E-01
5.26941317E-01
4.96888276E-01
4.69477393E-01
4.44459714E-01
4.21599539E-01
4.00678880E-01
3.81499269E-01
3.63881910E-01
3.47666864E-01
3.32711717E-01
3.18890008E-01
3.06089616E-01
2.94211181E-01
2.83166637E-01
2.72877875E-01
2.63275541E-01
2.54297967E-01
2.45890237E-01
2.38003357E-01
2.30593545E-01
2.23621594E-01
2.17052332E-01
2.10854145E-01
2.04998559E-01
1.99459881E-01
1.94214887E-01
1.89242537E-01
1.84523744E-01
1.80041157E-01
1.75778975E-01
1.71722787E-01
1.67859429E-01
1.64176851E-01
1.60664014E-01
1.57310782E-01
1.54107842E-01
1.51046618E-01
1.48119210E-01
1.45318324E-01
1.42637222E-01
1.40069669E-01
1.37609892E-01
1.35252537E-01
1.32992634E-01
1.30825567E-01
1.28747040E-01
1.26753057E-01
1.24839892E-01
1.23004072E-01
1.21242357E-01
1.19551719E-01
1.17929329E-01
1.16372541E-01
1.14878881E-01
1.13446030E-01
1.12071817E-01
1.10754210E-01
1.09491299E-01
1.08281298E-01
1.07122530E-01
1.06013420E-01
1.04952492E-01
1.03938362E-01
1.02969730E-01
1.02045377E-01
1.01164160E-01
1.00325006E-01
9.95269126E-02
9.87689382E-02
9.80502031E-02
9.73698845E-02
9.67272141E-02
9.61214756E-02
9.55520019E-02
9.50181732E-02
9.45194147E-02
9.40551951E-02
9.36250245E-02
9.32284531E-02
9.28650697E-02
9.25345004E-02
9.22364076E-02
9.19704885E-02
9.17364750E-02
9.15341321E-02
9.13632575E-02
9.12236812E-02
9.11152648E-02
9.10379008E-02
9.09915129E-02
9.09760554E-02
1.00000000E+00
9.46330657E-01
8.93431875E-01
8.42009644E-01
7.92653429E-01
7.45805307E-01
7.01752233E-01
6.60637708E-01
6.22485776E-01
5.87229945E-01
5.54741303E-01
5.24852512E-01
4.97376472E-01
4.72119788E-01
4.48891872E-01
4.27510653E-01
4.07805839E-01
3.89620478E-01
3.72811386E-01
3.57248874E-01
3.42816049E-01
3.29407897E-01
3.16930261E-01
3.05298814E-01
2.94438063E-01
2.84280409E-01
2.74765292E-01
2.65838407E-01
2.57451011E-01
2.49559291E-01
2.42123815E-01
2.35109040E-01
2.28482879E-01
2.22216318E-01
2.16283082E-01
2.10659336E-01
2.05323424E-01
2.00255641E-01
1.95438026E-01
1.90854182E-01
1.86489122E-01
1.82329120E-01
1.78361594E-01
1.74574989E-01
1.70958683E-01
1.67502895E-01
1.64198607E-01
1.61037499E-01
1.58011878E-01
1.55114630E-01
1.52339163E-01
1.49679367E-01
1.47129567E-01
1.44684495E-01
1.42339247E-01
1.40089260E-01
1.37930283E-01
1.35858352E-01
1.33869766E-01
1.31961071E-01
1.30129037E-01
1.28370646E-01
1.26683070E-01
1.25063666E-01
1.23509953E-01
1.22019611E-01
1.20590462E-01
1.19220462E-01
1.17907698E-01
1.16650370E-01
1.15446792E-01
1.14295380E-01
1.13194647E-01
1.12143199E-01
1.11139727E-01
1.10183002E-01
1.09271873E-01
1.08405261E-01
1.07582155E-01
1.06801607E-01
1.06062733E-01
1.05364707E-01
1.04706758E-01
1.04088167E-01
1.03508268E-01
1.02966442E-01
1.02462115E-01
1.01994762E-01
1.01563896E-01
1.01169076E-01
1.00809898E-01
1.00485998E-01
1.00197051E-01
9.99427669E-02
9.97228927E-02
9.95372104E-02
9.93855367E-02
9.92677223E-02
9.91836515E-02
9.91332419E-02
9.91164442E-02
1.00000000E+00
9.50540675E-01
9.01683750E-01
8.53988586E-01
8.07935726E-01
7.63903512E-01
7.22158960E-01
6.82861484E-01
6.46075877E-01
6.11790294E-01