# vtk DataFile Version 1.0
ECM-CELL DIFFUSION-MECHANICS
ASCII

DATASET UNSTRUCTURED_GRID
POINTS     6377 float
-9.63090000E+000 1.14240000E-001 0.00000000E+000
-9.39720000E+000 1.10720000E-001 0.00000000E+000
-9.46400000E+000 2.99750000E-001 0.00000000E+000
-9.63090000E+000 1.14240000E-001 2.50000000E-001
-9.39720000E+000 1.10720000E-001 2.50000000E-001
-9.46400000E+000 2.99750000E-001 2.50000000E-001
-9.23020000E+000 2.96230000E-001 0.00000000E+000
-9.16340000E+000 1.07210000E-001 0.00000000E+000
-9.29700000E+000 4.85260000E-001 0.00000000E+000
-9.63090000E+000 1.14240000E-001 5.00000000E-001
-9.39440000E+000 3.77040000E-001 4.94420000E-001
-9.11340000E+000 2.94470000E-001 2.83490000E-001
-9.28030000E+000 1.08960000E-001 5.33490000E-001
-9.04660000E+000 1.05450000E-001 2.83490000E-001
-9.07970000E+000 4.48210000E-001 8.14730000E-002
-9.22740000E+000 5.62550000E-001 2.44420000E-001
-8.99650000E+000 2.92720000E-001 0.00000000E+000
-8.92970000E+000 1.03690000E-001 0.00000000E+000
-9.13010000E+000 6.70770000E-001 0.00000000E+000
-9.63090000E+000 1.14240000E-001 7.50000000E-001
-9.39720000E+000 1.10720000E-001 7.50000000E-001
-9.46400000E+000 2.99750000E-001 7.50000000E-001
-9.01010000E+000 5.25500000E-001 3.25890000E-001
-9.04380000E+000 3.71770000E-001 5.27910000E-001
-8.89600000E+000 2.57420000E-001 3.64970000E-001
-8.86230000E+000 4.11150000E-001 1.62950000E-001
-9.15790000E+000 6.39850000E-001 4.88840000E-001
-8.81280000E+000 1.01930000E-001 2.83490000E-001
-8.77910000E+000 2.55660000E-001 8.14730000E-002
-8.82950000E+000 4.78230000E-001 0.00000000E+000
-9.06050000E+000 7.48060000E-001 2.44420000E-001
-8.91270000E+000 6.33720000E-001 8.14730000E-002
-8.92970000E+000 1.03690000E-001 5.66990000E-001
-8.69600000E+000 1.00180000E-001 0.00000000E+000
-9.11340000E+000 2.94470000E-001 7.83490000E-001
-9.22740000E+000 5.62550000E-001 7.44420000E-001
-9.04660000E+000 1.05450000E-001 7.83490000E-001
-9.01010000E+000 5.25500000E-001 6.59220000E-001
-8.96310000E+000 8.56280000E-001 0.00000000E+000
-9.63090000E+000 1.14240000E-001 1.00000000E+000
-8.88330000E+000 5.75890000E-001 4.84480000E-001
-8.73550000E+000 4.61540000E-001 3.21540000E-001
-8.89600000E+000 2.57420000E-001 6.98300000E-001
-8.65240000E+000 3.06050000E-001 2.40070000E-001
-8.76920000E+000 3.07810000E-001 5.23560000E-001
-9.39720000E+000 1.10720000E-001 1.00000000E+000
-9.46400000E+000 2.99750000E-001 1.00000000E+000
-8.78590000E+000 6.84100000E-001 2.40070000E-001
-8.64030000E+000 4.58700000E-001 8.14730000E-002
-8.69600000E+000 1.00180000E-001 5.00000000E-001
-8.57910000E+000 9.84190000E-002 2.16510000E-001
-8.97700000E+000 8.40820000E-001 4.60920000E-001
-8.55710000E+000 3.03210000E-001 0.00000000E+000
-9.23020000E+000 2.96230000E-001 1.00000000E+000
-8.69070000E+000 6.81270000E-001 0.00000000E+000
-9.16340000E+000 1.07210000E-001 1.00000000E+000
-9.29700000E+000 4.85260000E-001 1.00000000E+000
-9.07970000E+000 4.48210000E-001 9.14810000E-001
-9.06050000E+000 7.48060000E-001 7.44420000E-001
-8.81280000E+000 1.01930000E-001 7.83490000E-001
-8.87960000E+000 9.49030000E-001 2.16510000E-001
-8.73550000E+000 4.61540000E-001 6.54870000E-001
-8.46220000E+000 9.66610000E-002 0.00000000E+000
-8.86230000E+000 4.11150000E-001 8.29610000E-001
-8.60870000E+000 5.11920000E-001 4.80130000E-001
-8.99650000E+000 2.92720000E-001 1.00000000E+000
-8.53550000E+000 3.04290000E-001 4.56570000E-001
-8.51350000E+000 5.09090000E-001 2.40070000E-001
-8.92970000E+000 1.03690000E-001 1.00000000E+000
-8.44020000E+000 3.01460000E-001 2.16510000E-001
-8.70240000E+000 7.76860000E-001 4.56570000E-001
-8.60720000E+000 7.74020000E-001 2.16510000E-001
-8.65240000E+000 3.06050000E-001 7.40070000E-001
-8.46220000E+000 9.66610000E-002 4.33010000E-001
-8.79610000E+000 1.04180000E+000 0.00000000E+000
-9.13010000E+000 6.70770000E-001 1.00000000E+000
-8.77910000E+000 2.55660000E-001 9.14810000E-001
-8.78590000E+000 6.84100000E-001 7.40070000E-001
-8.57910000E+000 9.84190000E-002 7.16510000E-001
-8.91270000E+000 6.33720000E-001 9.14810000E-001
-8.41820000E+000 5.06250000E-001 0.00000000E+000
-8.34530000E+000 9.49040000E-002 2.16510000E-001
-8.58930000E+000 9.07680000E-001 0.00000000E+000
-8.32340000E+000 2.99700000E-001 0.00000000E+000
-8.79610000E+000 1.04180000E+000 4.33010000E-001
-8.82950000E+000 4.78230000E-001 1.00000000E+000
-8.87960000E+000 9.49030000E-001 7.16510000E-001
-8.41020000E+000 4.42960000E-001 4.26400000E-001
-8.61860000E+000 7.00550000E-001 6.46380000E-001
-8.33690000E+000 2.35330000E-001 4.02850000E-001
-8.31490000E+000 4.40130000E-001 1.86340000E-001
-8.69600000E+000 1.00180000E-001 1.00000000E+000
-8.43510000E+000 4.44440000E-001 6.18120000E-001
-8.71270000E+000 1.13450000E+000 2.16510000E-001
-8.64030000E+000 4.58700000E-001 9.14810000E-001
-8.51350000E+000 5.09090000E-001 7.40070000E-001
-8.71230000E+000 9.65490000E-001 6.22820000E-001
-8.22850000E+000 9.31460000E-002 0.00000000E+000
-8.36190000E+000 2.36810000E-001 5.94560000E-001
-8.96310000E+000 8.56280000E-001 1.00000000E+000
-8.42580000E+000 6.31230000E-001 5.43730000E-001
-8.22010000E+000 2.33570000E-001 1.86340000E-001
-8.33060000E+000 6.28390000E-001 3.03660000E-001
-8.79570000E+000 8.72730000E-001 9.06310000E-001
-8.50580000E+000 1.00040000E+000 2.16510000E-001
-8.31680000E+000 7.32660000E-001 0.00000000E+000
-8.47870000E+000 2.38570000E-001 8.78050000E-001
-8.51950000E+000 8.96160000E-001 5.20170000E-001
-8.34530000E+000 9.49040000E-002 7.16510000E-001
-8.55710000E+000 3.03210000E-001 1.00000000E+000
-8.20320000E+000 5.14420000E-001 0.00000000E+000
-8.69070000E+000 6.81270000E-001 1.00000000E+000
-8.22850000E+000 9.31460000E-002 5.00000000E-001
-8.21160000E+000 3.74000000E-001 3.72680000E-001
-8.62920000E+000 1.22730000E+000 0.00000000E+000
-8.62840000E+000 8.89180000E-001 8.12620000E-001
-8.23660000E+000 3.75480000E-001 5.64390000E-001
-8.21350000E+000 6.66540000E-001 1.86340000E-001
-8.10830000E+000 3.07870000E-001 0.00000000E+000
-8.46220000E+000 9.66610000E-002 1.00000000E+000
-8.52330000E+000 6.97720000E-001 9.06310000E-001
-8.11160000E+000 9.13890000E-002 2.83490000E-001
-8.71270000E+000 1.13450000E+000 7.16510000E-001
-8.22730000E+000 5.62270000E-001 4.90000000E-001
-8.42230000E+000 1.09320000E+000 0.00000000E+000
-8.43560000E+000 8.19860000E-001 7.09970000E-001
-8.09990000E+000 4.48300000E-001 1.86340000E-001
-8.62920000E+000 1.22730000E+000 5.00000000E-001
-8.26150000E+000 3.76960000E-001 7.56110000E-001
-8.33990000E+000 4.41610000E-001 8.78050000E-001
-8.79610000E+000 1.04180000E+000 1.00000000E+000
-8.25220000E+000 5.63740000E-001 6.81720000E-001
-8.10320000E+000 2.31810000E-001 4.69830000E-001
-8.33060000E+000 6.28390000E-001 8.03660000E-001
-8.22920000E+000 8.54800000E-001 3.03660000E-001
-8.41820000E+000 5.06250000E-001 1.00000000E+000
-7.99470000E+000 8.96310000E-002 0.00000000E+000
-8.08130000E+000 5.54060000E-001 3.22730000E-001
-8.24290000E+000 7.50530000E-001 6.07320000E-001
-8.24500000E+000 2.35050000E-001 8.78050000E-001
-8.12810000E+000 2.33290000E-001 6.61550000E-001
-8.54570000E+000 1.32010000E+000 2.83490000E-001
-8.58930000E+000 9.07680000E-001 1.00000000E+000
-8.62880000E+000 1.05820000E+000 9.06310000E-001
-8.21550000E+000 9.59070000E-001 0.00000000E+000
-7.99280000E+000 2.60230000E-001 1.46010000E-001
-8.54530000E+000 1.15100000E+000 6.89800000E-001
-8.10180000E+000 7.40830000E-001 0.00000000E+000
-8.32340000E+000 2.99700000E-001 1.00000000E+000
-8.08710000E+000 4.78860000E-001 4.83870000E-001
-7.98820000E+000 5.22590000E-001 0.00000000E+000
-8.11200000E+000 4.80330000E-001 6.75580000E-001
-8.33880000E+000 1.18590000E+000 2.83490000E-001
-7.98440000E+000 4.00660000E-001 3.32350000E-001
-8.35250000E+000 1.08170000E+000 5.87150000E-001
-8.11160000E+000 9.13890000E-002 7.83490000E-001
-8.42190000E+000 9.24130000E-001 9.06310000E-001
-8.09690000E+000 7.42330000E-001 4.40050000E-001
-8.08320000E+000 8.46600000E-001 1.36390000E-001
-8.22850000E+000 9.31460000E-002 1.00000000E+000
-7.99470000E+000 8.96310000E-002 5.66990000E-001
-8.10270000E+000 6.67120000E-001 6.01190000E-001
-7.96960000E+000 6.28360000E-001 1.36390000E-001
-8.46220000E+000 1.41280000E+000 0.00000000E+000
-8.31680000E+000 7.32660000E-001 1.00000000E+000
-7.97860000E+000 3.36670000E-001 5.81020000E-001
-7.87460000E+000 3.04360000E-001 0.00000000E+000
-8.12490000E+000 4.49780000E-001 8.78050000E-001
-7.87790000E+000 8.78740000E-002 2.83490000E-001
-8.22920000E+000 8.54800000E-001 8.03660000E-001
-8.20320000E+000 5.14420000E-001 1.00000000E+000
-8.11550000E+000 6.36560000E-001 8.03660000E-001
-8.62920000E+000 1.22730000E+000 1.00000000E+000
-7.87270000E+000 4.74950000E-001 1.46010000E-001
-8.54570000E+000 1.32010000E+000 7.83490000E-001
-8.25540000E+000 1.27870000E+000 0.00000000E+000
-8.10500000E+000 9.60920000E-001 4.66410000E-001
-7.95090000E+000 7.34120000E-001 2.72780000E-001
-7.87600000E+000 2.58470000E-001 4.29500000E-001
-7.95670000E+000 6.58920000E-001 4.33920000E-001
-8.09130000E+000 1.06520000E+000 1.62750000E-001
-8.10830000E+000 3.07870000E-001 1.00000000E+000
-7.96250000E+000 5.83710000E-001 5.95060000E-001
-8.46220000E+000 1.41280000E+000 5.66990000E-001
-8.05930000E+000 8.23370000E-001 6.57660000E-001
-8.01120000E+000 2.31540000E-001 8.78050000E-001
-8.42230000E+000 1.09320000E+000 1.00000000E+000
-7.98170000E+000 9.55560000E-001 0.00000000E+000
-8.33880000E+000 1.18590000E+000 7.83490000E-001
-8.16470000E+000 1.03990000E+000 6.67880000E-001
-7.85410000E+000 5.80720000E-001 2.82400000E-001
-7.85980000E+000 5.05510000E-001 4.43540000E-001
-7.86810000E+000 7.37320000E-001 0.00000000E+000
-7.76100000E+000 8.61160000E-002 0.00000000E+000
-7.75910000E+000 2.56710000E-001 1.46010000E-001
-7.97540000E+000 5.53150000E-001 7.97530000E-001
-8.37870000E+000 1.50560000E+000 2.83490000E-001
-7.95900000E+000 9.52720000E-001 2.99140000E-001
-8.21470000E+000 1.29210000E+000 4.46240000E-001
-7.99470000E+000 8.96310000E-002 1.00000000E+000
-7.91330000E+000 8.15160000E-001 4.90390000E-001
[...]
POINT_DATA     6377
SCALARS Ux float
LOOKUP_TABLE default
3.00000000E+000
2.99082469E+000
3.00000000E+000
3.00000000E+000
2.99068940E+000
3.00000000E+000
2.97943965E+000
2.96653072E+000
3.00000000E+000
3.00000000E+000
3.00000000E+000
2.96430464E+000
2.98013152E+000
2.94961164E+000
2.96912042E+000
3.00000000E+000
2.94582519E+000
2.92939784E+000
3.00000000E+000
3.00000000E+000
2.99067316E+000
3.00000000E+000
2.96481372E+000
2.95787560E+000
2.92617775E+000
2.92801045E+000
3.00000000E+000
2.90623618E+000
2.90208266E+000
2.92657869E+000
3.00000000E+000
2.95905206E+000
2.92951829E+000
2.87989072E+000
2.96429269E+000
3.00000000E+000
2.94961049E+000
2.96479082E+000
3.00000000E+000
3.00000000E+000
2.94680881E+000
2.90484206E+000
2.92619500E+000
2.87480847E+000
2.90222881E+000
2.99082171E+000
3.00000000E+000
2.93963698E+000
2.88195544E+000
2.87990086E+000
2.85049585E+000
3.00000000E+000
2.85031205E+000
2.97942627E+000
2.91772804E+000
2.96653562E+000
3.00000000E+000
2.96911733E+000
3.00000000E+000
2.90625117E+000
3.00000000E+000
2.90484265E+000
2.81802390E+000
2.92801500E+000
2.87891361E+000
2.94582755E+000
2.84447174E+000
2.85359213E+000
2.92942357E+000
2.81733809E+000
2.93365114E+000
2.91035430E+000
2.87483436E+000
2.81797849E+000
3.00000000E+000
3.00000000E+000
2.90211595E+000
2.93957163E+000
2.85053600E+000
2.95905072E+000
2.82638516E+000
2.78227242E+000
2.92713079E+000
2.78141148E+000
3.00000000E+000
2.92659702E+000
3.00000000E+000
2.81820599E+000
2.90288776E+000
2.78260280E+000
2.78864799E+000
2.87993696E+000
2.82565464E+000
3.00000000E+000
2.88199151E+000
2.85360494E+000
2.96698750E+000
2.74351814E+000
2.79063235E+000
3.00000000E+000
2.84245218E+000
2.74354718E+000
2.81391609E+000
2.96937097E+000
2.92222759E+000
2.82398700E+000
2.82576593E+000
2.90719201E+000
2.78229321E+000
2.85031637E+000
2.75950260E+000
2.91788555E+000
2.74288349E+000
2.74890554E+000
3.00000000E+000
2.93369483E+000
2.75761203E+000
2.78194623E+000
2.70690399E+000
2.81808028E+000
2.87793329E+000
2.70042569E+000
3.00000000E+000
2.77292678E+000
2.91749809E+000
2.87176383E+000
2.71608954E+000
3.00000000E+000
2.76610427E+000
2.79668792E+000
3.00000000E+000
2.78114643E+000
2.70063931E+000
2.81383360E+000
2.81630281E+000
2.82639536E+000
2.65429822E+000
2.72147642E+000
2.80358723E+000
2.75245031E+000
2.71020245E+000
3.00000000E+000
2.92712587E+000
2.96460766E+000
2.83085197E+000
2.65905161E+000
2.96236779E+000
2.75566518E+000
2.78150676E+000
2.71445537E+000
2.68281583E+000
2.72384241E+000
2.91346281E+000
2.66687250E+000
2.89570553E+000
2.70087237E+000
2.88552394E+000
2.75424213E+000
2.76747485E+000
2.74357638E+000
2.65251275E+000
2.74463012E+000
2.69076493E+000
3.00000000E+000
2.82392339E+000
2.65845922E+000
2.61220936E+000
2.72517877E+000
2.60252159E+000
2.81631444E+000
2.75926126E+000
2.74450957E+000
3.00000000E+000
2.63014330E+000
3.00000000E+000
2.90991990E+000
2.79618954E+000
2.70110610E+000
2.60801849E+000
2.69068247E+000
2.81277006E+000
2.70749290E+000
2.68127576E+000
3.00000000E+000
2.75512944E+000
2.66532791E+000
2.91744080E+000
2.75387435E+000
2.91346672E+000
2.83083169E+000
2.63818423E+000
2.62885489E+000
2.67084777E+000
2.54765840E+000
2.55388009E+000
2.68138112E+000
3.00000000E+000
2.74546175E+000
2.90087888E+000
2.65398995E+000
2.70210542E+000
2.58645693E+000
2.60388947E+000
2.57270422E+000
2.83077691E+000
2.93943886E+000
2.68423969E+000
2.82642958E+000
2.75562569E+000
2.69031472E+000
2.60904823E+000
2.93708415E+000
2.68233192E+000
2.59719709E+000
2.89737100E+000
2.76991555E+000
2.55561583E+000
2.63205261E+000
2.68967920E+000
3.00000000E+000
2.79537467E+000
2.50060862E+000
2.84838590E+000
2.74953918E+000
3.00000000E+000
2.73369486E+000
2.65428204E+000
2.64122405E+000
2.57522795E+000
2.52575768E+000
3.00000000E+000
2.61272697E+000
2.83282253E+000
2.63116471E+000
2.70450152E+000
2.47902962E+000
2.78688432E+000
3.00000000E+000
2.67022104E+000
2.90992641E+000
2.58416402E+000
2.57761568E+000
2.64437861E+000
2.87021311E+000
2.91625969E+000
2.81099549E+000
2.40022088E+000
2.75370387E+000
2.70508308E+000
2.54632717E+000
2.42676636E+000
2.40297373E+000
2.67065813E+000
2.54789362E+000
2.89460125E+000
2.74794981E+000
3.00000000E+000
2.65764868E+000
2.64016434E+000
2.41516868E+000
2.47955905E+000
2.58115846E+000
2.93487174E+000
2.58538927E+000
2.68723051E+000
2.54450717E+000
2.82651102E+000
2.77184057E+000
2.93312245E+000
2.59402642E+000
2.76335701E+000
2.62575360E+000
2.82863987E+000
2.71474272E+000
2.60943827E+000
2.35914157E+000
2.91420798E+000
3.00000000E+000
2.39842520E+000
2.49536466E+000
2.73644170E+000
3.00000000E+000
2.64001790E+000
2.42323111E+000
2.80246915E+000
2.35890333E+000
3.00000000E+000
2.53256640E+000
2.46628590E+000
2.84957463E+000
2.67082008E+000
2.57448152E+000
3.00000000E+000
2.67006282E+000
2.76611989E+000
2.66994647E+000
2.57787636E+000
2.86680009E+000
2.91616966E+000
2.47275668E+000
2.41028255E+000
2.69896577E+000
2.91420907E+000
2.18000691E+000
2.64155548E+000
1.91401363E+000
2.91254394E+000
2.74790973E+000
2.17908064E+000
2.75416809E+000
2.35866838E+000
1.92306450E+000
2.54310781E+000
2.42632720E+000
2.48116718E+000
2.48053563E+000
1.75182777E+000
3.00000000E+000
2.17563682E+000
2.35554324E+000
2.78457122E+000
2.73133807E+000
1.84901181E+000
2.78040613E+000
2.50100714E+000
1.69267137E+000
2.87256634E+000
2.70443973E+000
2.52480172E+000
2.82863142E+000
2.57348982E+000
1.61899192E+000
2.36171854E+000
2.17640708E+000
3.00000000E+000
1.92506512E+000
2.54310739E+000
2.42652838E+000
2.29856604E+000
3.00000000E+000
2.22139986E+000
2.67095782E+000
1.63612656E+000
2.21956698E+000
2.67719827E+000
2.57906229E+000
1.56485627E+000
2.73506482E+000
3.00000000E+000
2.57473088E+000
2.81861002E+000
1.91864222E+000
1.69210798E+000
2.47695981E+000
2.63774915E+000
2.87037689E+000
1.75376362E+000
2.47285097E+000
2.70829880E+000
2.60751186E+000
1.49715545E+000
1.63247985E+000
2.70443590E+000
2.17685145E+000
3.00000000E+000
1.91336116E+000
2.43273847E+000
2.91248770E+000
2.31829881E+000
2.75414666E+000
2.61007456E+000
2.05787790E+000
2.36803485E+000
1.69505762E+000
1.89553092E+000
2.17252042E+000
2.50974985E+000
2.06110955E+000
1.75159794E+000
2.92988805E+000
1.49343286E+000
2.91092359E+000
2.35726487E+000
1.56484241E+000
2.73955461E+000
2.38792573E+000
1.57829640E+000
2.32103354E+000
2.67281508E+000
2.64154394E+000
2.46678833E+000
1.42768839E+000
1.51008975E+000
2.74280529E+000
2.90635117E+000
3.00000000E+000
2.24891146E+000
2.43300788E+000
2.17330297E+000
2.79062409E+000
1.61859612E+000
2.84036268E+000
2.71667915E+000
2.61013669E+000
1.66648681E+000
2.54183791E+000
1.38143961E+000
2.50961021E+000
2.76904384E+000
2.06002483E+000
2.22082423E+000
2.28476979E+000
1.74859694E+000
2.77436301E+000
1.55304566E+000
2.92891177E+000
2.21024846E+000
2.67733062E+000
2.57892977E+000
1.63164415E+000
1.92467086E+000
3.00000000E+000
2.57356787E+000
2.81868518E+000
2.31995118E+000
2.67711267E+000
2.07230960E+000
2.11936067E+000
2.47240396E+000
2.47711135E+000
1.42761017E+000
1.44029507E+000
1.87064795E+000
1.52207075E+000
2.57799219E+000
1.35891202E+000
1.54336303E+000
1.49758885E+000
2.39924041E+000
2.72136514E+000
1.71198046E+000
3.00000000E+000
2.61478345E+000
1.76179344E+000
2.72936261E+000
2.33642292E+000
2.79637913E+000
2.64563209E+000
3.00000000E+000
1.31321294E+000
2.38084104E+000
2.05827491E+000
2.36804348E+000
2.47670407E+000
2.54598641E+000
1.89391781E+000
2.17173180E+000
2.50520448E+000
1.76935928E+000
1.59827722E+000
2.44331728E+000
2.81000865E+000
1.43597894E+000
2.68985172E+000
1.61225552E+000
2.21060554E+000
2.28989836E+000
2.64658625E+000
1.97885721E+000
2.30120945E+000
1.66188571E+000
2.37265172E+000
1.26748900E+000
1.48577197E+000
1.49752528E+000
1.41677023E+000
2.41973773E+000
2.22160032E+000
3.00000000E+000
2.27110028E+000
2.61400018E+000
2.74270806E+000
2.90631718E+000
2.11925440E+000
2.76468279E+000
2.24874692E+000
2.54695454E+000
1.55334880E+000
2.33526189E+000
2.51379949E+000
2.83248664E+000
1.75700037E+000
1.66630883E+000
2.66657618E+000
1.31335281E+000
1.38155339E+000
2.63021311E+000
2.62978077E+000
2.65860190E+000
2.92792954E+000
2.07841686E+000
2.90501485E+000
2.41105233E+000
2.68158851E+000
2.18585771E+000
2.57345801E+000
2.45330362E+000
1.64572662E+000
1.36844570E+000
2.71118360E+000
1.44773073E+000
1.86490539E+000
2.71929284E+000
2.90377754E+000
2.15320765E+000
2.77872155E+000
2.11812792E+000
1.74864386E+000
2.47234693E+000
2.78703253E+000
3.00000000E+000
2.08216982E+000
1.47337539E+000
2.70311997E+000
2.58327840E+000
1.36160227E+000
2.46952241E+000
1.54020018E+000
1.99246375E+000
2.85514767E+000
2.59867775E+000
1.54331769E+000
1.37106170E+000
2.30603528E+000
1.76192617E+000
2.48301907E+000
1.43714383E+000
2.83248819E+000
2.75647400E+000
1.44847507E+000
3.00000000E+000
2.38114388E+000
2.63608238E+000
1.58160804E+000
2.92691043E+000
2.54196248E+000
1.19679637E+000
2.38067219E+000
2.51139170E+000
2.80499858E+000
1.84930112E+000
2.64343282E+000
2.23646257E+000
2.03358949E+000
2.80997013E+000
1.42673534E+000
1.14648742E+000
2.44060833E+000
1.34834760E+000
1.97896435E+000
1.86433356E+000
1.14765569E+000
1.99286165E+000
1.27211874E+000
1.26745996E+000
1.51558726E+000
1.91167953E+000
3.00000000E+000
2.38915300E+000
2.24480786E+000
2.69706156E+000
2.27106363E+000
2.19746393E+000
2.75919487E+000
1.52845645E+000
1.29507746E+000
2.29020960E+000
2.55289550E+000
2.41853260E+000
2.10274855E+000
1.88682041E+000
2.11420129E+000
2.82774073E+000
3.00000000E+000
1.42554268E+000
2.58346604E+000
1.75923124E+000
1.56709713E+000
1.22559620E+000
2.35020763E+000
2.51143898E+000
1.66252325E+000
1.45865229E+000
2.14944815E+000
2.62983260E+000
2.92690903E+000
2.00124016E+000
2.59361526E+000
2.28611985E+000
2.67539702E+000
1.65333731E+000
2.52672950E+000
1.24968461E+000
1.32430253E+000
1.37686484E+000
2.32986418E+000
1.67035161E+000
2.46058778E+000
2.52702675E+000
1.74858247E+000
3.00000000E+000
1.40377005E+000
2.90005349E+000
1.94777984E+000
1.46601711E+000
2.79395559E+000
2.24496591E+000
2.13355551E+000
2.18158346E+000
2.90374651E+000
2.15345617E+000
1.14704822E+000
1.84201386E+000
2.64645064E+000
2.41844190E+000
1.96000924E+000
2.63847862E+000
1.36141505E+000
1.91328979E+000
2.03828249E+000
2.46961326E+000
1.30349246E+000
1.56724144E+000
1.80978498E+000
2.74895700E+000
1.64569091E+000
2.75729100E+000
1.22556283E+000
1.55271407E+000
2.03029797E+000
2.92585341E+000
2.56813539E+000
1.92458616E+000
1.44844284E+000
2.82607045E+000
1.47947067E+000
2.36808965E+000
2.13008347E+000
1.58159666E+000
2.79977222E+000
1.73652285E+000
2.38067357E+000
2.32976767E+000
1.84960648E+000
2.40684122E+000
2.80323116E+000
2.56326148E+000
1.37898574E+000
1.35705379E+000
2.03497147E+000
1.48605942E+000
2.67325633E+000
2.64342375E+000
1.28334609E+000
2.03321689E+000
2.57847563E+000
1.91821630E+000
1.14558894E+000
1.45670988E+000
1.79488725E+000
1.74829728E+000
2.47652427E+000
1.44472121E+000
2.07091416E+000
3.00000000E+000
1.00000000E+000
2.69090021E+000
2.69715226E+000
1.30563190E+000
1.00000000E+000
2.52197951E+000
2.88978861E+000
2.31983210E+000
1.35798243E+000
2.29001292E+000
1.70832928E+000
3.00000000E+000
1.10481502E+000
1.85120065E+000
1.99618006E+000
1.38870341E+000
2.15626801E+000
2.51052766E+000
1.66276067E+000
1.92399261E+000
2.58338060E+000
2.17823725E+000
1.00000000E+000
2.10968341E+000
1.56285598E+000
2.89858655E+000
1.67253721E+000
1.82633395E+000
1.13392008E+000
2.79786264E+000
1.47327857E+000
1.10318507E+000
2.01823042E+000
2.23197106E+000
1.24975374E+000
2.58311492E+000
2.18777944E+000
1.99911113E+000
1.61071932E+000
1.33767611E+000
2.52693154E+000
1.26447448E+000
2.35711104E+000
3.00000000E+000
2.78837494E+000
1.86253560E+000
2.89881428E+000
2.79397498E+000
1.69746874E+000
2.18162129E+000
1.75085765E+000
2.68864165E+000
2.44836549E+000
1.80058912E+000
1.93662113E+000
2.41935905E+000
1.57517996E+000
1.28691602E+000
1.18812808E+000
2.59933830E+000
2.06450145E+000
1.00000000E+000
1.96050977E+000
1.91326630E+000
1.59044293E+000
2.20534998E+000
1.10453255E+000
1.21243153E+000
1.75342016E+000
1.36905298E+000
2.67876167E+000
2.46403693E+000
1.54816923E+000
2.04946373E+000
1.85323676E+000
3.00000000E+000
2.27104639E+000
2.57340478E+000
1.48946998E+000
2.06774094E+000
2.68366419E+000
1.63392813E+000
1.50270760E+000
1.73628759E+000
2.42524731E+000
1.30649052E+000
1.89831071E+000
2.54082316E+000
2.23197426E+000
1.23558203E+000
2.40692357E+000
2.52542967E+000
1.82365287E+000
2.35710068E+000
2.89723617E+000
1.48622467E+000
1.31933039E+000
3.00000000E+000
2.88801801E+000
1.45166557E+000
2.78633111E+000
2.79589148E+000
1.38980543E+000
1.86608870E+000
2.07103296E+000
1.79302199E+000
2.04633318E+000
1.00000000E+000
2.10206295E+000
2.57830290E+000
1.28679836E+000
2.68859194E+000
1.88519032E+000
2.88976306E+000
1.21246951E+000
2.12455577E+000
1.39809141E+000
2.31974940E+000
1.66293549E+000
1.38643682E+000
1.96896384E+000
2.77659982E+000
1.52228222E+000
1.36897811E+000
2.33488852E+000
2.34614006E+000
2.61406405E+000
1.66025435E+000
2.40738318E+000
1.56277164E+000
1.73852729E+000
1.13361111E+000
1.85381903E+000
1.62727129E+000
1.35006115E+000
1.27337307E+000
1.94364754E+000
1.95776604E+000
2.58317201E+000
2.45905660E+000
2.46835782E+000
2.26188160E+000
1.69754903E+000
1.20137691E+000
1.47203408E+000
1.86588079E+000
1.69982441E+000
1.59953620E+000
1.80068153E+000
1.30181377E+000
2.72024939E+000
2.78632121E+000
1.59388799E+000
2.02857018E+000
1.73824564E+000
1.99932542E+000
1.22407234E+000
1.96050334E+000
2.20531304E+000
3.00000000E+000
2.43570368E+000
1.95428954E+000
2.10433456E+000
2.71034218E+000
1.00000000E+000
2.23588916E+000
1.66759918E+000
2.95732204E+000
1.51183576E+000
1.00000000E+000
2.55048538E+000
1.37864808E+000
2.67882830E+000
2.46389299E+000
2.88596740E+000
2.55588182E+000
3.00000000E+000
2.50121652E+000
2.66038384E+000
1.63387016E+000
1.80917410E+000
1.87758760E+000
2.17702832E+000
2.09878175E+000
1.78819437E+000
2.07923158E+000
1.22732432E+000
1.23573501E+000
1.08783825E+000
1.44804611E+000
2.26188121E+000
1.54062579E+000
1.73801384E+000
2.32399236E+000
2.90414748E+000
1.31935681E+000
1.30144175E+000
2.80062622E+000
1.43033137E+000
2.58160690E+000
1.15369697E+000
1.57336907E+000
2.15160534E+000
1.86589329E+000
1.41444087E+000
2.38444149E+000
2.55536215E+000
2.49788334E+000
1.11539212E+000
2.10217431E+000
2.79067699E+000
1.79624222E+000
2.95652734E+000
3.00000000E+000
2.85224403E+000
1.39456440E+000
1.54121372E+000
1.39807960E+000
1.66088863E+000
2.38461290E+000
2.77664181E+000
1.75291651E+000
1.56687213E+000
1.00000000E+000
2.64453913E+000
2.34615535E+000
2.24100886E+000
2.12648336E+000
1.89807622E+000
2.44454897E+000
2.00706594E+000
1.51579126E+000
1.46258761E+000
1.08784281E+000
1.70007341E+000
1.28831025E+000
1.24088102E+000
1.85380752E+000
2.67708863E+000
2.65039406E+000
2.52266498E+000
1.48672069E+000
2.43736998E+000
1.99635967E+000
1.35978011E+000
1.78959139E+000
1.97995924E+000
1.21321362E+000
2.32399262E+000
1.69764000E+000
3.00000000E+000
2.15164053E+000
2.58535240E+000
1.47204878E+000
2.74652664E+000
1.90838589E+000
1.60322902E+000
1.31751351E+000
1.61431877E+000
1.42729414E+000
2.25161741E+000
2.72328922E+000
1.99926412E+000
1.17797299E+000
1.00000000E+000
1.25375235E+000
1.80129051E+000
2.90203644E+000
2.41392777E+000
1.00000000E+000
2.23584826E+000
1.58363937E+000
1.73514424E+000
1.34770397E+000
2.02940208E+000
2.84244673E+000
1.38902938E+000
2.30200062E+000
2.52696319E+000
2.88588223E+000
2.50129894E+000
1.33136964E+000
1.08272363E+000
1.99015804E+000
1.63032281E+000
3.00000000E+000
1.49161906E+000
1.10839798E+000
1.65106121E+000
2.21554215E+000
2.77356139E+000
2.06284254E+000
2.61110254E+000
1.16879218E+000
2.36165813E+000
2.16988135E+000
1.91952087E+000
1.54071517E+000
1.31386385E+000
1.24197101E+000
2.46552953E+000
2.58157347E+000
1.52656685E+000
2.02163407E+000
1.87033544E+000
1.69727038E+000
2.80459763E+000
1.11549513E+000
1.80024084E+000
2.73630106E+000
2.66945667E+000
2.14512705E+000
2.09197675E+000
1.30048687E+000
1.45551355E+000
1.90939065E+000
2.85751195E+000
1.22973619E+000
1.65874541E+000
2.38456352E+000
1.45045586E+000
1.75283383E+000
2.27913624E+000
1.85973618E+000
2.42035481E+000
2.68894906E+000
2.12651803E+000
1.57050790E+000
1.81106989E+000
1.89795715E+000
1.78532041E+000
1.53300216E+000
2.15060189E+000
2.06785635E+000
1.69487313E+000
1.93369192E+000
2.55148451E+000
2.60949154E+000
1.72086163E+000
1.24092867E+000
2.23070280E+000
2.91094871E+000
2.67696163E+000
2.95554669E+000
1.37014425E+000
2.36165214E+000
2.49809353E+000
1.00000000E+000
1.61476446E+000
2.47329903E+000
2.23188935E+000
3.00000000E+000
1.19909269E+000
1.12460060E+000
1.60311470E+000
1.31749320E+000
1.38965909E+000
2.74917113E+000
2.88619614E+000
1.77393307E+000
1.13102161E+000
3.00000000E+000
1.26865748E+000
2.38274062E+000
1.72989233E+000
1.43289520E+000
1.94358381E+000
1.47828519E+000
1.26243138E+000
2.03871438E+000
2.49378190E+000
1.51647051E+000
1.65114737E+000
2.57719184E+000
2.55237774E+000
1.40356106E+000
2.80147173E+000
1.89725289E+000
1.80931496E+000
1.19141848E+000
1.50182238E+000
2.17438212E+000
1.10308125E+000
1.35662056E+000
2.02944362E+000
1.38904288E+000
1.81105706E+000
2.21125975E+000
2.78678112E+000
2.63722998E+000
2.44052121E+000
2.89903823E+000
1.97425303E+000
1.57115793E+000
1.06352627E+000
2.77355531E+000
1.41924316E+000
2.25759529E+000
1.61468386E+000
1.24400033E+000
1.70784628E+000
2.12603973E+000
2.95419605E+000
3.00000000E+000
2.57782029E+000
2.51796982E+000
2.69417511E+000
1.49320830E+000
2.16130558E+000
1.83958728E+000
1.80020807E+000
2.66989262E+000
1.18765655E+000
1.45552426E+000
1.95325328E+000
2.06540933E+000
1.51817298E+000
1.31330670E+000
1.90733849E+000
1.65869290E+000
1.14980759E+000
1.71549973E+000
1.74080302E+000
1.94363288E+000
2.27913342E+000
1.25615198E+000
2.71608762E+000
2.31490665E+000
1.21883820E+000
2.42034689E+000
1.86109653E+000
1.00000000E+000
2.08666408E+000
1.56142560E+000
3.00000000E+000
1.57149334E+000
1.98336434E+000
1.31335841E+000
1.06040465E+000
1.63885693E+000
2.63497672E+000
1.93375381E+000
1.60656706E+000
1.83709375E+000
2.49813305E+000
1.30044577E+000
2.04125508E+000
1.32651781E+000
1.00000000E+000
2.14243163E+000
1.20748528E+000
2.25039434E+000
2.25757423E+000
1.37773030E+000
2.84054404E+000
1.68140573E+000
2.32997250E+000
2.88604146E+000
1.78083576E+000
2.43859606E+000
2.01178380E+000
1.46513240E+000
2.79311912E+000
2.60198905E+000
2.51803994E+000
1.13106397E+000
2.45996190E+000
1.73956003E+000
1.52993337E+000
2.88185768E+000
1.51651947E+000
2.57722388E+000
2.06819930E+000
1.97450556E+000
1.88912298E+000
2.18837479E+000
2.76735750E+000
2.17439530E+000
1.43930197E+000
1.16165426E+000
1.36476012E+000
2.66078889E+000
1.00000000E+000
1.40789564E+000
3.00000000E+000
2.33472662E+000
2.73048128E+000
2.40332327E+000
1.20752517E+000
1.70131361E+000
2.12375131E+000
1.80219170E+000
1.43702732E+000
1.84999833E+000
1.74955624E+000
1.66297834E+000
1.26461190E+000
1.24401553E+000
1.42115670E+000
2.54186567E+000
1.70778769E+000
1.17168330E+000
1.08883926E+000
1.62106810E+000
1.80441391E+000
2.69568934E+000
2.47869600E+000
2.08244218E+000
1.83976151E+000
1.58920097E+000
1.89851714E+000
1.52994248E+000
2.67005226E+000
2.18159070E+000
1.35195826E+000
2.06540725E+000
1.85447148E+000
1.31332060E+000
1.54153349E+000
2.95305100E+000
2.59866376E+000
1.65357842E+000
1.06847181E+000
1.00000000E+000
1.47686384E+000
2.31488228E+000
1.72467828E+000
1.25330060E+000
1.58242043E+000
2.38637964E+000
1.74783688E+000
1.36476245E+000
3.00000000E+000
1.57148305E+000
1.87821764E+000
1.92765381E+000
1.58108510E+000
2.00985981E+000
1.00000000E+000
2.21365459E+000
2.77258996E+000
1.72591639E+000
2.87800609E+000
1.24171227E+000
2.75349786E+000
2.88968037E+000
2.46180538E+000
3.00000000E+000
2.48279579E+000
2.56636266E+000
2.40507386E+000
1.47936461E+000
1.37772712E+000
1.49101590E+000
2.54149163E+000
2.42159796E+000
2.16292896E+000
2.62603533E+000
1.38572468E+000
1.17783385E+000
2.16955714E+000
2.09969617E+000
2.80852516E+000
1.98302119E+000
1.42705181E+000
1.67382633E+000
1.64980053E+000
1.60458709E+000
1.30558299E+000
1.74606936E+000
1.97453893E+000