# vtk DataFile Version 1.0
ECM-CELL DIFFUSION-MECHANICS
ASCII

DATASET UNSTRUCTURED_GRID
POINTS      732 float
1.50000000E+01 3.00000000E+01 0.00000000E+00
-5.00000000E+00 3.00000000E+01 0.00000000E+00
-5.00000000E+00 0.00000000E+00 0.00000000E+00
-2.50000000E+01 0.00000000E+00 0.00000000E+00
-2.69134178E+01 -9.61939812E+00 0.00000000E+00
-2.85355339E+01 -8.53553391E+00 0.00000000E+00
-2.96193981E+01 -6.91341734E+00 0.00000000E+00
-3.00000000E+01 -5.00000000E+00 0.00000000E+00
-2.96193981E+01 -3.08658290E+00 0.00000000E+00
-2.85355339E+01 -1.46446609E+00 0.00000000E+00
-2.69134178E+01 -3.80602330E-01 0.00000000E+00
-2.50000000E+01 -1.00000000E+01 0.00000000E+00
5.00000000E+00 -1.00000000E+01 0.00000000E+00
5.00000000E+00 2.00000000E+01 0.00000000E+00
1.30000000E+01 3.00000000E+01 0.00000000E+00
1.10000000E+01 3.00000000E+01 0.00000000E+00
9.00000000E+00 3.00000000E+01 0.00000000E+00
7.00000000E+00 3.00000000E+01 0.00000000E+00
5.00000000E+00 3.00000000E+01 0.00000000E+00
3.00000000E+00 3.00000000E+01 0.00000000E+00
1.00000000E+00 3.00000000E+01 0.00000000E+00
-1.00000000E+00 3.00000000E+01 0.00000000E+00
-3.00000000E+00 3.00000000E+01 0.00000000E+00
-5.00000000E+00 2.80000000E+01 0.00000000E+00
-5.00000000E+00 2.60000000E+01 0.00000000E+00
-5.00000000E+00 2.40000000E+01 0.00000000E+00
-5.00000000E+00 2.20000000E+01 0.00000000E+00
-5.00000000E+00 2.00000000E+01 0.00000000E+00
-5.00000000E+00 1.80000000E+01 0.00000000E+00
-5.00000000E+00 1.60000000E+01 0.00000000E+00
-5.00000000E+00 1.40000000E+01 0.00000000E+00
-5.00000000E+00 1.20000000E+01 0.00000000E+00
-5.00000000E+00 1.00000000E+01 0.00000000E+00
-5.00000000E+00 8.00000000E+00 0.00000000E+00
-5.00000000E+00 6.00000000E+00 0.00000000E+00
-5.00000000E+00 4.00000000E+00 0.00000000E+00
-5.00000000E+00 2.00000000E+00 0.00000000E+00
-7.00000000E+00 0.00000000E+00 0.00000000E+00
-9.00000000E+00 0.00000000E+00 0.00000000E+00
-1.10000000E+01 0.00000000E+00 0.00000000E+00
-1.30000000E+01 0.00000000E+00 0.00000000E+00
-1.50000000E+01 0.00000000E+00 0.00000000E+00
-1.70000000E+01 0.00000000E+00 0.00000000E+00
-1.90000000E+01 0.00000000E+00 0.00000000E+00
-2.10000000E+01 0.00000000E+00 0.00000000E+00
-2.30000000E+01 0.00000000E+00 0.00000000E+00
3.00000000E+00 -1.00000000E+01 0.00000000E+00
1.00000000E+00 -1.00000000E+01 0.00000000E+00
-1.00000000E+00 -1.00000000E+01 0.00000000E+00
-3.00000000E+00 -1.00000000E+01 0.00000000E+00
-5.00000000E+00 -1.00000000E+01 0.00000000E+00
-7.00000000E+00 -1.00000000E+01 0.00000000E+00
-9.00000000E+00 -1.00000000E+01 0.00000000E+00
-1.10000000E+01 -1.00000000E+01 0.00000000E+00
-1.30000000E+01 -1.00000000E+01 0.00000000E+00
-1.50000000E+01 -1.00000000E+01 0.00000000E+00
-1.70000000E+01 -1.00000000E+01 0.00000000E+00
-1.90000000E+01 -1.00000000E+01 0.00000000E+00
-2.10000000E+01 -1.00000000E+01 0.00000000E+00
-2.30000000E+01 -1.00000000E+01 0.00000000E+00
5.00000000E+00 1.80000000E+01 0.00000000E+00
5.00000000E+00 1.60000000E+01 0.00000000E+00
5.00000000E+00 1.40000000E+01 0.00000000E+00
5.00000000E+00 1.20000000E+01 0.00000000E+00
5.00000000E+00 1.00000000E+01 0.00000000E+00
5.00000000E+00 8.00000000E+00 0.00000000E+00
5.00000000E+00 6.00000000E+00 0.00000000E+00
5.00000000E+00 4.00000000E+00 0.00000000E+00
5.00000000E+00 2.00000000E+00 0.00000000E+00
5.00000000E+00 0.00000000E+00 0.00000000E+00
5.00000000E+00 -2.00000000E+00 0.00000000E+00
5.00000000E+00 -4.00000000E+00 0.00000000E+00
5.00000000E+00 -6.00000000E+00 0.00000000E+00
5.00000000E+00 -8.00000000E+00 0.00000000E+00
6.42857122E+00 2.14285717E+01 0.00000000E+00
7.85714293E+00 2.28571434E+01 0.00000000E+00
9.28571415E+00 2.42857151E+01 0.00000000E+00
1.07142859E+01 2.57142849E+01 0.00000000E+00
1.21428576E+01 2.71428566E+01 0.00000000E+00
1.35714283E+01 2.85714283E+01 0.00000000E+00
-2.55692158E+01 -7.47994947E+00 0.00000000E+00
-2.68123989E+01 -6.65812349E+00 0.00000000E+00
-2.78370075E+01 -5.65078545E+00 0.00000000E+00
-2.49931679E+01 -2.99975061E+00 0.00000000E+00
-6.07402325E+00 -2.51799893E+00 0.00000000E+00
-3.41205382E+00 6.06536293E+00 0.00000000E+00
-7.90601015E+00 -2.16468501E+00 0.00000000E+00
6.93360615E+00 2.85683231E+01 0.00000000E+00
5.03122282E+00 2.85983677E+01 0.00000000E+00
3.07519960E+00 2.83579216E+01 0.00000000E+00
1.02007830E+00 2.82704353E+01 0.00000000E+00
-1.00747931E+00 2.81540108E+01 0.00000000E+00
-2.98253322E+00 2.20530071E+01 0.00000000E+00
-3.14535069E+00 1.99964409E+01 0.00000000E+00
-3.38007402E+00 1.80213890E+01 0.00000000E+00
-3.24730754E+00 1.60810070E+01 0.00000000E+00
-3.22061014E+00 1.40090933E+01 0.00000000E+00
-3.27037716E+00 1.19557343E+01 0.00000000E+00
-3.32515502E+00 9.95609379E+00 0.00000000E+00
-3.37583542E+00 7.99501371E+00 0.00000000E+00
-3.38906217E+00 4.20707273E+00 0.00000000E+00
-3.21241689E+00 2.45526028E+00 0.00000000E+00
-2.81301451E+00 1.00452256E+00 0.00000000E+00
-9.85906696E+00 -1.94350755E+00 0.00000000E+00
-1.18253517E+01 -1.81189597E+00 0.00000000E+00
-1.37737036E+01 -1.72045147E+00 0.00000000E+00
-1.56994905E+01 -1.64893782E+00 0.00000000E+00
-1.76126289E+01 -1.59551537E+00 0.00000000E+00
-1.95252953E+01 -1.56757510E+00 0.00000000E+00
-2.14428196E+01 -1.57937253E+00 0.00000000E+00
-2.40465412E+01 -7.98486996E+00 0.00000000E+00
-2.32975655E+01 -1.60528278E+00 0.00000000E+00
-8.58305335E-01 -8.21509266E+00 0.00000000E+00
-2.85219836E+00 -8.24649334E+00 0.00000000E+00
-4.86234474E+00 -8.28040028E+00 0.00000000E+00
-6.82275486E+00 -8.35858631E+00 0.00000000E+00
-8.72553921E+00 -8.46272755E+00 0.00000000E+00
-1.06668940E+01 -8.49340248E+00 0.00000000E+00
-1.26085234E+01 -8.47250462E+00 0.00000000E+00
-1.45571985E+01 -8.43932819E+00 0.00000000E+00
-1.65147133E+01 -8.41329861E+00 0.00000000E+00
-1.84622021E+01 -8.38815498E+00 0.00000000E+00
-2.03904629E+01 -8.34011364E+00 0.00000000E+00
-2.22757702E+01 -8.22864628E+00 0.00000000E+00
3.32341838E+00 1.79214497E+01 0.00000000E+00
3.49274993E+00 1.58118629E+01 0.00000000E+00
3.45036292E+00 1.38697481E+01 0.00000000E+00
3.40310287E+00 1.19041443E+01 0.00000000E+00
3.36840963E+00 9.92752457E+00 0.00000000E+00
3.33398676E+00 7.94917822E+00 0.00000000E+00
3.27319622E+00 5.98151016E+00 0.00000000E+00
3.14357090E+00 4.00265217E+00 0.00000000E+00
2.93195248E+00 2.00336671E+00 0.00000000E+00
2.85718203E+00 -7.79486522E-02 0.00000000E+00
2.96486330E+00 -2.16540527E+00 0.00000000E+00
3.04931951E+00 -4.18990898E+00 0.00000000E+00
3.07869506E+00 -6.14942598E+00 0.00000000E+00
3.06127834E+00 -8.08621216E+00 0.00000000E+00
8.87478542E+00 2.87956104E+01 0.00000000E+00
1.06500645E+01 2.90019722E+01 0.00000000E+00
9.73117542E+00 2.65182457E+01 0.00000000E+00
4.64431381E+00 2.23340874E+01 0.00000000E+00
8.02427673E+00 2.53785686E+01 0.00000000E+00
6.40424109E+00 2.39808598E+01 0.00000000E+00
-2.30793724E+01 -6.28166199E+00 0.00000000E+00
-2.65148945E+01 -3.90364408E+00 0.00000000E+00
-3.43422222E+00 -1.27146482E+00 0.00000000E+00
1.04067838E+00 2.66475811E+01 0.00000000E+00
1.10761571E+00 -8.16181087E+00 0.00000000E+00
-7.36092031E-01 -6.43063927E+00 0.00000000E+00
-4.75875711E+00 -6.53175259E+00 0.00000000E+00
-6.72676086E+00 -6.65011883E+00 0.00000000E+00
-8.50626945E+00 -6.96918011E+00 0.00000000E+00
-1.03056269E+01 -7.00035810E+00 0.00000000E+00
-1.21337996E+01 -6.91552496E+00 0.00000000E+00
-1.40198870E+01 -6.83708525E+00 0.00000000E+00
-1.59333124E+01 -6.77759314E+00 0.00000000E+00
-1.20785129E+00 1.97240963E+01 0.00000000E+00
-1.32478476E+00 1.64232349E+01 0.00000000E+00
1.96661806E+00 1.56013527E+01 0.00000000E+00
1.83737338E+00 1.38039751E+01 0.00000000E+00
1.66680229E+00 7.95078230E+00 0.00000000E+00
1.58930695E+00 6.05578279E+00 0.00000000E+00
1.41368437E+00 4.18972206E+00 0.00000000E+00
-2.88116503E+00 2.41189423E+01 0.00000000E+00
-1.05743062E+00 2.20182400E+01 0.00000000E+00
-2.06459260E+00 1.80287819E+01 0.00000000E+00
1.76209581E+00 1.18621569E+01 0.00000000E+00
1.71383548E+00 9.90428638E+00 0.00000000E+00
-1.96961384E+01 -6.65574455E+00 0.00000000E+00
1.10382271E+00 -2.44856596E+00 0.00000000E+00
-2.71728683E+00 -6.50229883E+00 0.00000000E+00
-6.94966459E+00 -4.68074226E+00 0.00000000E+00
-8.87774658E+00 -3.94481039E+00 0.00000000E+00
-1.07458334E+01 -3.67898369E+00 0.00000000E+00
-1.26495609E+01 -3.53031301E+00 0.00000000E+00
-1.45555058E+01 -3.42598987E+00 0.00000000E+00
-1.64351330E+01 -3.33984756E+00 0.00000000E+00
-1.82789097E+01 -3.26375914E+00 0.00000000E+00
-1.78273373E+01 -6.72471857E+00 0.00000000E+00
-2.00785789E+01 -3.19971037E+00 0.00000000E+00
-1.49681842E+00 1.40206604E+01 0.00000000E+00
-1.58211720E+00 1.19191847E+01 0.00000000E+00
-1.64738953E+00 9.92495728E+00 0.00000000E+00
-1.70833540E+00 7.99023056E+00 0.00000000E+00
-1.75975442E+00 6.13986826E+00 0.00000000E+00
-1.75903368E+00 4.42714834E+00 0.00000000E+00
-1.57233489E+00 2.89093947E+00 0.00000000E+00
8.35785091E-01 2.16724944E+00 0.00000000E+00
6.82180047E-01 -2.41043478E-01 0.00000000E+00
1.19283760E+00 -4.42227745E+00 0.00000000E+00
5.08529997E+00 2.73792095E+01 0.00000000E+00
3.36510825E+00 2.64843388E+01 0.00000000E+00
2.03854513E+00 1.69918709E+01 0.00000000E+00
-2.18747597E+01 -3.21142745E+00 0.00000000E+00
-2.14750767E+01 -6.53344297E+00 0.00000000E+00
3.87977886E+00 2.02254429E+01 0.00000000E+00
6.80135918E+00 2.67542229E+01 0.00000000E+00
3.63350844E+00 2.38850384E+01 0.00000000E+00
-2.38274765E+01 -3.46659899E+00 0.00000000E+00
1.18041360E+00 -6.30371428E+00 0.00000000E+00
-9.38736618E-01 2.63029137E+01 0.00000000E+00
1.22929611E+01 2.88663254E+01 0.00000000E+00
-2.54329395E+01 -4.97643757E+00 0.00000000E+00
-2.34656639E+01 -4.58569384E+00 0.00000000E+00
2.50105619E+00 2.18994751E+01 0.00000000E+00
1.02533674E+00 1.74530888E+01 0.00000000E+00
-2.03710103E+00 -2.63990819E-01 0.00000000E+00
-2.58995533E+00 -4.80094004E+00 0.00000000E+00
-8.48027420E+00 -5.76261616E+00 0.00000000E+00
-9.76420498E+00 -5.45034361E+00 0.00000000E+00
-1.15105400E+01 -5.29605007E+00 0.00000000E+00
-1.33758335E+01 -5.19502783E+00 0.00000000E+00
-1.39613941E-01 4.48769760E+00 0.00000000E+00
[...]
POINT_DATA      732
SCALARS Ux float
LOOKUP_TABLE default
1.00000000E+00
3.91372553E+00
3.07602262E-01
0.00000000E+00
-0.00000000E+00
-6.77626358E-21
-0.00000000E+00
-1.86347248E-20
-2.03287907E-20
-2.03287907E-20
0.00000000E+00
-0.00000000E+00
-1.32488217E-01
1.00000000E+00
1.16784433E-01
-4.12977609E+00
-3.85194847E-01
9.23754522E-02
-1.36705440E+00
-1.33915165E+01
-2.11679349E+01
-5.31937345E+00
-8.95217108E+00
-1.95076508E+00
-2.58278733E+00
3.14085418E+00
4.02830639E-01
-1.77245330E+01
3.80555188E+00
-2.28225271E+01
-1.30245243E+00
-3.19836050E+00
-5.18408112E+00
1.86976601E+00
-6.48362529E+00
2.77180752E+00
-8.79050704E-01
-5.85452464E-02
-3.05087990E-02
-1.49674301E-03
-4.94453193E-03
2.76991533E-02
-3.18000094E-03
-2.07916714E-03
9.88863143E-04
3.53266213E-04
-2.57860868E-03
-2.11672196E-01
3.93639637E-02
8.27835708E-02
1.16648342E-01
3.96412265E-02
3.86331547E-02
-1.92151352E-02
1.22014559E-03
4.99825715E-03
-1.68797101E-03
-4.55744961E-02
-4.33131787E-03
-5.66099507E-04
1.94648252E+00
-5.76794968E+00
-1.92491550E+00
1.85365250E+00
5.70166473E+00
-1.24397569E+00
1.46883235E-01
6.39429628E-01
-4.78365933E-01
-2.59124474E-01
2.01392762E-01
1.68884384E-02
9.61087821E-02
-1.03478852E-01
1.00000000E+00
1.00000000E+00
1.00000000E+00
1.00000000E+00
1.00000000E+00
1.00000000E+00
-6.37050735E-05
-1.68826463E-05
-6.12355856E-05
-3.53147339E-03
1.77559542E-01
7.96839182E-01
-3.81010105E-02
-7.60877480E-01
3.98056752E-01
5.36591853E-01
1.07305515E+00
-8.63047104E+00
4.85483947E-01
-4.61084135E+00
-2.85840582E+00
1.30406209E+00
2.86519941E+00
3.94420673E-01
6.91230013E-01
-5.41327958E-01
1.95681148E-01
-1.09917296E-01
8.60699645E-02
-9.87933096E-03
-1.29219026E-02
2.75384072E-02
-2.49042480E-02
2.90884217E-04
6.58744803E-03
-5.77135008E-03
1.25145892E-03
-2.08038949E-04
-1.77405367E-02
-2.91814341E-01
1.10329890E-01
1.36088649E-01
2.58928188E-02
-1.76351331E-02
3.61188064E-03
-6.62166235E-04
-4.95428572E-03
1.99861947E-02
-5.36054804E-03
-2.57023710E-03
4.94631424E-01
3.10865212E-01
9.28946735E+00
3.45068798E-01
-1.07128236E+00
2.45589017E+00
2.20266494E+00
-4.80564084E-01
5.48905584E-03
-8.07267332E-02
8.84477734E-03
-5.54006493E-01
1.99316646E-01
5.44041753E-02
-4.23363557E-01
2.31812225E-01
-5.14471903E+00
-9.64877710E-02
-2.10546552E+00
-9.20589574E+00
1.36816795E-03
2.46840374E-06
1.75736581E-01
1.18979383E+01
-1.95480242E-02
4.05473799E-02
-6.75135017E-04
-3.89217860E-02
1.67609468E-02
6.38004919E-03
-3.86093853E-03
-3.36323641E-02
5.05003382E-03
6.55296901E+00
6.33007958E+00
1.16403618E+00
-3.07551644E+00
-2.79892244E+00
-2.22109991E+00
-1.73152724E+00
-6.32595451E+00
1.16094248E+01
-2.46234889E+00
9.71126767E+00
-7.39655974E-01
-3.85219226E-02
-6.56320163E-03
1.21736890E-02
-6.14652480E-02
3.38527396E-02
1.92407466E-02
1.47241467E-02
-6.66662052E-03
3.97166642E-02
2.07008999E-02
-1.00971415E-02
-9.45035990E-03
-1.14739511E+00
9.96974521E+00
-6.00922873E+00
-3.19782385E-01
-2.10028205E+00
-2.69223082E-02
-1.53266562E-01
-1.23246946E-01
-5.93543165E-01
1.51645323E-02
-2.14173779E+00
2.87441729E+00
-2.00928554E+00
2.99335519E-04
-5.16333590E-04
1.03463011E+00
9.68266814E+00
1.98869394E+00
-2.18706883E-04
-1.91070730E-02
4.54692817E+00
-6.33785039E-01
1.66756047E-04
8.97934575E-04
3.75438511E-01
-2.48093447E+00
-4.43855281E-01
-1.70334703E-01
9.00869133E-03
2.95017590E-02
1.63406437E-02
-3.14306002E-02
5.67352684E+00
-2.85001014E-02
-1.39111079E-02
-3.31880555E-02
-1.52347955E+00
-5.20359052E-01
7.11662346E-01
-1.51752865E+01
-2.30080520E+00
2.20976255E+00
-5.85501376E-02
-7.01874319E+00
2.07960396E+00
-1.27119285E+00
-1.00758646E-02
7.15283307E-05
8.93867522E+00
5.35525702E-01
6.12447662E-04
-2.33885387E+00
4.21706965E-02
1.46830862E-01
4.80466050E-01
-4.46902924E-01
1.70719913E-01
3.52770091E-01
8.66921289E+00
-6.13647231E-04
8.41055876E-01
-3.15640866E+01
-2.35303383E-05
-1.51498362E-04
8.44895808E-05
-3.04043331E-03
9.02555331E-06
-7.79039930E-01
-1.66150523E+00
2.01816145E+00
-1.00726579E-02
2.04156973E+00
-4.98190628E-03
1.90351877E+00
3.46913679E+00
4.21906497E-01
-7.54503263E+00
-3.13570023E+00
3.77850497E+00
-6.37173306E-01
-2.39473426E-01
-8.00444513E+00
-7.72062556E-01
-8.83584256E-01
-1.03913460E+01
3.74069985E-02
-2.36635819E-01
1.28176351E-01
1.09343745E-01
5.02720858E+00
-8.23799035E-01
1.56586101E-01
4.97848941E+00
-7.76528764E-02
1.28535967E-02
3.65990767E-01
-1.74850103E-02
1.29211873E-03
-9.62446343E-04
-1.81305260E-03
8.16147387E-04
-2.37169225E-20
-1.64425332E-04
1.27273958E-04
-7.92261769E-06
-5.95611500E-03
1.02930651E-03
1.32740915E-03
-4.76288184E-03
2.35581038E-21
-7.36995920E-05
2.56421146E-05
-6.08581988E-06
1.20409371E-03
-5.42731482E-04
5.31628049E-05
1.54982932E-03
1.32911018E-05
-9.87524693E-04
-2.49933654E-03
-5.42067280E-04
-7.61399090E-02
-3.87138343E+00
-2.89336261E-01
-7.56899773E-02
-7.01772928E-01
7.48520341E+00
-5.74193154E-01
-1.22984463E-01
-3.00908843E+01
2.16166968E+00
2.08770528E+00
-2.07741819E-01
-3.57806588E-02
2.59521970E+00
-1.60610877E+01
-7.61198534E-01
-1.09439572E+01
2.73730051E+00
-9.07390688E+00
1.51608356E+00
-3.88808818E+00
6.62475552E+00
3.47024133E+01
-5.62307316E+00
3.01865766E+00
-2.58130797E+00
5.91941431E+00
-1.81267198E+00
3.61391811E+00
5.88320518E+00
-9.68712934E-02
-4.04406696E+01
-2.80701707E+00
-3.81484030E-02
-3.24388873E+01
2.04344254E+00
-8.17990672E-01
-1.89932743E+00
-4.55804487E+00
2.26856813E+00
-8.49419468E+00
1.83546481E+00
-8.74291391E-01
8.52424214E+00
-2.13746261E+00
2.05315366E-01
9.55612608E-01
-9.07429874E-01
3.19941481E-01
-1.05510622E-01
8.90607063E-02
-8.15353667E-01
3.75672410E-01
-2.57573005E+00
7.80353772E-01
-1.44642494E-01
1.42787379E+00
-3.59852349E-01
9.08667542E-02
-3.97783245E-01
1.71026608E-01
5.25705368E-03
1.45300723E-01
-7.80916636E-03
2.01203152E-03
-2.36114030E-02
-1.37453806E-02
-3.18524412E-02
-2.48696447E-03
-1.09737033E-02
-5.63382064E-03
-2.28528578E-03
2.35231059E-02
-7.39758076E-03
2.12152269E-02
-1.85026615E-03
2.50250697E-02
-7.38459302E-03
3.63459974E-03
-2.44626538E-03
2.80706588E-04
3.20567904E-03
-1.40938114E-03
7.11720868E-04
1.33380458E-03
-1.07551420E-02
1.34673981E-02
-6.75296967E-03
-5.79582853E-03
-1.84005140E-05
-1.58775948E-04
3.71440617E-05
-1.78744782E-05
-2.21722680E-02
-2.24262692E-01
1.00832966E-01
8.19055822E-03
-2.01248329E-02
-6.50136979E-02
-4.17794348E-02
-2.47289199E-02
-1.39740916E-01
-9.79160411E-02
-2.66077615E-02
9.26761224E-04
-2.04458681E-02
1.91457612E-02
7.36481152E-02
5.61387241E-02
1.14990878E-01
4.52960406E-02
2.44690364E-01
1.02427639E-01
2.26543015E-03
9.63266480E-02
-1.01817999E-02
2.38887261E-04
3.09969782E-04
1.05132570E-01
3.13898187E-03
-4.04186837E-03
8.64523330E-03
-1.09480756E-02
-8.75588347E-03
3.00566455E-03
-9.74247349E-03
1.28241128E-03
-1.27328337E-01
-7.33312589E-03
8.13127906E-03
-4.37208059E+00
-2.30851639E-01
-4.38813257E-01
1.06295692E+00
-6.87997148E-01
1.56354923E-01
1.87141395E+00
-1.75765077E+01
5.76567376E+00
1.53729517E+00
-2.03031548E-02
-9.84311367E-01
-1.98026387E+01
5.03640195E-02
5.31958259E-01
7.99318101E+00
5.04513519E-01
1.16155904E+00
4.26820917E-01
2.10790526E+00
-1.39956620E+00
-7.88294246E-01
-2.93199192E-01
-1.40654639E+00
2.47088826E+01
-2.71197587E+00
-3.34583180E+00
-1.25670465E-01
7.04623236E+00
-2.50240051E-01
-4.09567016E-02
1.56356908E-01
-1.99672545E-01
-1.41861413E-01
1.58598408E-01
1.67405162E-01
8.87623547E-02
-1.67294499E-02
1.85274036E-01
3.24345555E-02
1.88207953E-02
-1.61884870E-02
-3.83213151E-01
-4.38887215E+00
-6.22719162E-01
-6.50492612E-02
1.93289842E-01
1.00000000E+00
2.33212761E-01
-1.43666864E+00
4.49498592E-03
-2.87215441E-05
-8.17449477E-06
6.69264629E-07
-1.35525272E-20
0.00000000E+00
0.00000000E+00
-6.44367285E-06
-7.88199809E-07
-2.21766733E-04
-1.22140757E-03
-2.49145918E-05
-1.49836126E-03
2.03287907E-20
2.30749390E-02
3.87528046E-02
-6.88769067E+00
-1.98311988E+00
1.00000000E+00
-1.24518514E-01
-3.87933312E+00
-1.99164209E+00
1.00000000E+00
1.22215103E+00
-1.12325487E+00
3.73636369E+00
1.97832980E+00
5.98432567E+00
3.87222372E+00
-3.57840324E+00
6.56496281E-01
-9.64868786E-01
1.41169616E+00
-1.79808067E+01
-8.33492234E-01
9.82201596E+00
-2.37057084E+00
2.23355075E+00
3.86698990E-01
-5.46951429E+00
1.13485225E+00
3.33030875E-01
-5.77190340E+00
2.30141041E+00
-1.06528812E+00
-3.41961165E-01
-1.64565740E+00
7.01248657E-01
-3.21062271E+00
1.30058924E+00
-7.48559985E+00
7.45164163E-02
-2.99850400E-01
1.98626781E+00
-1.00449605E+00
-9.08389826E+00
-4.02642544E-01
1.84662992E+00
1.51772310E-01
3.49115243E-01
1.25965059E-01
-2.95130265E-02
-4.49496991E-01
-2.21066323E-02
1.65335263E-02
-2.02540342E-03
-1.83420788E-02
2.51430014E-02
-2.11841082E-03
-1.76687793E-03
2.29218480E-02
-5.52168647E-03
-9.48617816E-03
-2.53545808E-03
-1.62397680E-02
-1.79983791E-02
-1.58414214E-03
8.73203336E-04
-8.30090272E-04
-3.18563105E-04
3.65589524E-03
1.08729281E-03
-6.68715293E-06
-8.82660553E-04
-1.27587546E-01
-1.13069624E-02
-1.17445573E-02
1.20595076E-01
-3.44764059E-01
1.28386796E-01
-6.09787170E-02
1.61404679E-04
-1.13249814E-01
3.61037816E-02
5.88466893E-01
-5.71817910E-02
-7.32446167E-02
-5.48505734E-02
-6.64951446E-02
1.59486192E-02
8.80013592E-03
1.36592968E-02
3.93557142E-02
-3.74001155E-03
6.41617684E-02
-7.92095351E-02
-1.18314847E-02
-9.87829417E-02
8.21060731E-03
-1.42071825E-02
-2.90728562E-02
3.04064788E-03
1.39124010E-04
-2.45990287E-04
2.84801253E-02
1.42157228E-02
1.28322712E-02
1.42524640E-03
3.42178105E-04
-4.29459944E-04
-2.87834503E+00
-4.14417774E+00
2.08024206E+00
9.08391370E-01
1.00000000E+00
8.18801263E-01
4.66268889E-01
1.20552106E+00
-3.68353507E-01
2.19590016E-01
-3.52316993E+00
-1.31992791E+00
-1.70739197E+00
-4.88546063E-01
-6.69543057E-01
9.15790509E-01
-1.79447702E+00
-1.76249425E+01
-1.53712636E+00
1.48582792E+00
-2.36138649E-01
2.94626065E-01
-1.37346586E-01
-5.16127241E+00
-2.03580642E-01
-3.49963946E-02
-4.13509063E-02
-1.17653206E+00
-6.38358118E-02
1.56241137E-01
3.54554308E-02
1.36661539E-01
-2.54832123E-02
1.74426320E-01
-3.15552199E-02
-3.53186502E-02
1.17906683E-02
-2.65947715E-02
1.00000000E+00
9.62889437E-01
-1.90101064E+00
6.16499389E-01
8.08447643E-01
1.10879109E+00
1.00000000E+00
-3.70918868E+00
-6.36948115E-01
-5.50089447E-04
3.58659095E-02
-4.05399908E-02
-1.02355742E+00
6.44268283E+00
6.53119443E-02
-2.77533369E-02
2.37609157E-02
-1.54133846E-02
1.44549176E-02
-3.37362897E-03
1.88813895E-02
-6.42551227E-03
5.26606070E-03
2.46602473E-02
-3.03833024E-03
2.46153343E-03
1.75493070E+01
2.88533318E+00
-1.48341197E+00
1.39110298E+01
-8.52784395E-02
1.37271726E-01
1.58556839E+01
2.65296120E-04
2.43528362E-01
-2.11950121E-01
-3.35320076E-01
5.03902224E+00
1.55588702E+00
1.71426679E+00
3.72239617E+00
1.92672568E+00
-1.51142734E-02
4.17462951E-04
1.31576027E-04
-1.15553357E-01
-1.29123779E-01
3.15206467E-02
-5.24095803E-04
1.54184928E-02
-5.17448316E-03
-2.59587213E-02
-1.01285633E-02
-2.67602972E-02
-2.01289773E-02
-4.25632896E-04
-9.08104583E-03
6.12593397E-01
-1.43783999E-01
-6.60812166E-01
-1.59696657E-01
-2.77814390E-01
3.18588291E+00
2.17844455E-01
-1.48295447E-01
1.98699484E+00
6.17960095E-01
-1.73007655E-03
-8.31449365E-02
1.65562155E+00
-1.55253898E-01
-3.32217612E+00
-4.94207973E-04
1.00000000E+00
-1.15164032E-01
-2.32614830E-01
-5.63126089E-01
5.97174159E-01
-1.63488460E+00
-1.82929563E+01
4.92028375E-01
-6.39099895E-01
4.80185735E+00
9.67552139E+00
6.40500677E+00
-1.47671613E-03
5.30777764E+00
-6.77626358E-21
1.72536669E-06
-2.66754845E-05
0.00000000E+00
7.08493433E-01
