# vtk DataFile Version 1.0
ECM-CELL DIFFUSION-MECHANICS
ASCII

DATASET UNSTRUCTURED_GRID
POINTS      243 float
1.50000000E+001 3.00000000E+001 0.00000000E+000
-5.00000000E+000 3.00000000E+001 0.00000000E+000
-5.00000000E+000 0.00000000E+000 0.00000000E+000
-2.50000000E+001 0.00000000E+000 0.00000000E+000
-2.69134178E+001 -9.61939812E+000 0.00000000E+000
-2.85355339E+001 -8.53553391E+000 0.00000000E+000
-2.96193981E+001 -6.91341734E+000 0.00000000E+000
-3.00000000E+001 -5.00000000E+000 0.00000000E+000
-2.96193981E+001 -3.08658290E+000 0.00000000E+000
-2.85355339E+001 -1.46446609E+000 0.00000000E+000
-2.69134178E+001 -3.80602330E-001 0.00000000E+000
-2.50000000E+001 -1.00000000E+001 0.00000000E+000
5.00000000E+000 -1.00000000E+001 0.00000000E+000
5.00000000E+000 2.00000000E+001 0.00000000E+000
1.30000000E+001 3.00000000E+001 0.00000000E+000
1.10000000E+001 3.00000000E+001 0.00000000E+000
9.00000000E+000 3.00000000E+001 0.00000000E+000
7.00000000E+000 3.00000000E+001 0.00000000E+000
5.00000000E+000 3.00000000E+001 0.00000000E+000
3.00000000E+000 3.00000000E+001 0.00000000E+000
1.00000000E+000 3.00000000E+001 0.00000000E+000
-1.00000000E+000 3.00000000E+001 0.00000000E+000
-3.00000000E+000 3.00000000E+001 0.00000000E+000
-5.00000000E+000 2.80000000E+001 0.00000000E+000
-5.00000000E+000 2.60000000E+001 0.00000000E+000
-5.00000000E+000 2.40000000E+001 0.00000000E+000
-5.00000000E+000 2.20000000E+001 0.00000000E+000
-5.00000000E+000 2.00000000E+001 0.00000000E+000
-5.00000000E+000 1.80000000E+001 0.00000000E+000
-5.00000000E+000 1.60000000E+001 0.00000000E+000
-5.00000000E+000 1.40000000E+001 0.00000000E+000
-5.00000000E+000 1.20000000E+001 0.00000000E+000
-5.00000000E+000 1.00000000E+001 0.00000000E+000
-5.00000000E+000 8.00000000E+000 0.00000000E+000
-5.00000000E+000 6.00000000E+000 0.00000000E+000
-5.00000000E+000 4.00000000E+000 0.00000000E+000
-5.00000000E+000 2.00000000E+000 0.00000000E+000
-7.00000000E+000 0.00000000E+000 0.00000000E+000
-9.00000000E+000 0.00000000E+000 0.00000000E+000
-1.10000000E+001 0.00000000E+000 0.00000000E+000
-1.30000000E+001 0.00000000E+000 0.00000000E+000
-1.50000000E+001 0.00000000E+000 0.00000000E+000
-1.70000000E+001 0.00000000E+000 0.00000000E+000
-1.90000000E+001 0.00000000E+000 0.00000000E+000
-2.10000000E+001 0.00000000E+000 0.00000000E+000
-2.30000000E+001 0.00000000E+000 0.00000000E+000
3.00000000E+000 -1.00000000E+001 0.00000000E+000
1.00000000E+000 -1.00000000E+001 0.00000000E+000
-1.00000000E+000 -1.00000000E+001 0.00000000E+000
-3.00000000E+000 -1.00000000E+001 0.00000000E+000
-5.00000000E+000 -1.00000000E+001 0.00000000E+000
-7.00000000E+000 -1.00000000E+001 0.00000000E+000
-9.00000000E+000 -1.00000000E+001 0.00000000E+000
-1.10000000E+001 -1.00000000E+001 0.00000000E+000
-1.30000000E+001 -1.00000000E+001 0.00000000E+000
-1.50000000E+001 -1.00000000E+001 0.00000000E+000
-1.70000000E+001 -1.00000000E+001 0.00000000E+000
-1.90000000E+001 -1.00000000E+001 0.00000000E+000
-2.10000000E+001 -1.00000000E+001 0.00000000E+000
-2.30000000E+001 -1.00000000E+001 0.00000000E+000
5.00000000E+000 1.80000000E+001 0.00000000E+000
5.00000000E+000 1.60000000E+001 0.00000000E+000
5.00000000E+000 1.40000000E+001 0.00000000E+000
5.00000000E+000 1.20000000E+001 0.00000000E+000
5.00000000E+000 1.00000000E+001 0.00000000E+000
5.00000000E+000 8.00000000E+000 0.00000000E+000
5.00000000E+000 6.00000000E+000 0.00000000E+000
5.00000000E+000 4.00000000E+000 0.00000000E+000
5.00000000E+000 2.00000000E+000 0.00000000E+000
5.00000000E+000 0.00000000E+000 0.00000000E+000
5.00000000E+000 -2.00000000E+000 0.00000000E+000
5.00000000E+000 -4.00000000E+000 0.00000000E+000
5.00000000E+000 -6.00000000E+000 0.00000000E+000
5.00000000E+000 -8.00000000E+000 0.00000000E+000
6.42857122E+000 2.14285717E+001 0.00000000E+000
7.85714293E+000 2.28571434E+001 0.00000000E+000
9.28571415E+000 2.42857151E+001 0.00000000E+000
1.07142859E+001 2.57142849E+001 0.00000000E+000
1.21428576E+001 2.71428566E+001 0.00000000E+000
1.35714283E+001 2.85714283E+001 0.00000000E+000
-2.63336372E+001 -7.76659107E+000 0.00000000E+000
-2.82226868E+001 -6.43824339E+000 0.00000000E+000
-2.81175652E+001 -4.60588837E+000 0.00000000E+000
-2.61591434E+001 -2.10037327E+000 0.00000000E+000
7.94419193E+000 2.81601086E+001 0.00000000E+000
-3.19118237E+000 2.72962761E+001 0.00000000E+000
-5.94074678E+000 -1.56135583E+000 0.00000000E+000
-3.28010941E+000 6.99999666E+000 0.00000000E+000
-7.98214865E+000 -1.62386549E+000 0.00000000E+000
5.94069958E+000 2.82131767E+001 0.00000000E+000
3.96576309E+000 2.81945496E+001 0.00000000E+000
1.96850979E+000 2.81876316E+001 0.00000000E+000
-9.25469864E-003 2.82110806E+001 0.00000000E+000
-3.19306159E+000 2.51208878E+001 0.00000000E+000
-3.24140286E+000 2.30419273E+001 0.00000000E+000
-3.26721168E+000 2.10157700E+001 0.00000000E+000
-3.29015899E+000 1.90030117E+001 0.00000000E+000
-3.29848814E+000 1.69995918E+001 0.00000000E+000
-3.29507470E+000 1.49994574E+001 0.00000000E+000
-3.28950334E+000 1.29997454E+001 0.00000000E+000
-3.28517389E+000 1.09999161E+001 0.00000000E+000
-3.28540468E+000 8.99997520E+000 0.00000000E+000
-3.28817058E+000 4.99999905E+000 0.00000000E+000
-3.32450199E+000 2.98746324E+000 0.00000000E+000
-3.41863847E+000 9.27179158E-001 0.00000000E+000
-9.99433708E+000 -1.64214647E+000 0.00000000E+000
-1.19982300E+001 -1.64728785E+000 0.00000000E+000
-1.39994688E+001 -1.64868796E+000 0.00000000E+000
-1.59998932E+001 -1.64905524E+000 0.00000000E+000
-1.80005169E+001 -1.65485740E+000 0.00000000E+000
-1.99944210E+001 -1.67004955E+000 0.00000000E+000
-2.19607010E+001 -1.70543468E+000 0.00000000E+000
-2.40205898E+001 -8.05579758E+000 0.00000000E+000
-2.39267063E+001 -1.82353294E+000 0.00000000E+000
2.29777122E+000 -8.18962097E+000 0.00000000E+000
1.23059466E-001 -8.18267441E+000 0.00000000E+000
-1.95802188E+000 -8.22096157E+000 0.00000000E+000
-3.98471189E+000 -8.24636459E+000 0.00000000E+000
-5.99523783E+000 -8.26851940E+000 0.00000000E+000
-7.99814987E+000 -8.27763176E+000 0.00000000E+000
-9.99911308E+000 -8.28131580E+000 0.00000000E+000
-1.19996176E+001 -8.28250790E+000 0.00000000E+000
-1.39998579E+001 -8.28286648E+000 0.00000000E+000
-1.59999981E+001 -8.28308964E+000 0.00000000E+000
-1.80003262E+001 -8.28923416E+000 0.00000000E+000
-1.99951019E+001 -8.28801823E+000 0.00000000E+000
-2.19786606E+001 -8.23145771E+000 0.00000000E+000
3.37062716E+000 1.89233551E+001 0.00000000E+000
3.34054041E+000 1.69807224E+001 0.00000000E+000
3.33640957E+000 1.49944878E+001 0.00000000E+000
3.34315801E+000 1.29984617E+001 0.00000000E+000
3.34957194E+000 1.09995937E+001 0.00000000E+000
3.35198402E+000 8.99989700E+000 0.00000000E+000
3.35113668E+000 6.99997568E+000 0.00000000E+000
3.34448671E+000 4.99999523E+000 0.00000000E+000
3.32652950E+000 2.99973011E+000 0.00000000E+000
3.30527616E+000 9.98020113E-001 0.00000000E+000
3.28119373E+000 -1.01071751E+000 0.00000000E+000
3.25898099E+000 -3.01927686E+000 0.00000000E+000
3.24397135E+000 -5.00071239E+000 0.00000000E+000
1.02151985E+001 2.80007057E+001 0.00000000E+000
8.72700691E+000 2.62242470E+001 0.00000000E+000
4.53118944E+000 2.19883575E+001 0.00000000E+000
7.42255640E+000 2.47146339E+001 0.00000000E+000
6.02210903E+000 2.33871956E+001 0.00000000E+000
-2.49141693E+001 -5.84206676E+000 0.00000000E+000
-2.77587090E+001 -3.09401059E+000 0.00000000E+000
-3.74367332E+000 -1.32242095E+000 0.00000000E+000
3.37542582E+000 -6.68383884E+000 0.00000000E+000
-1.68782008E+000 2.83659058E+001 0.00000000E+000
2.93006825E+000 2.63407249E+001 0.00000000E+000
1.37449419E+000 -6.19837618E+000 0.00000000E+000
-6.99313116E+000 -6.56894302E+000 0.00000000E+000
-8.99560261E+000 -6.58624029E+000 0.00000000E+000
-1.09978485E+001 -6.59370756E+000 0.00000000E+000
-1.29991169E+001 -6.59640884E+000 0.00000000E+000
-1.49997482E+001 -6.59741163E+000 0.00000000E+000
-1.70005054E+001 -6.60687542E+000 0.00000000E+000
-1.89910336E+001 -6.61446953E+000 0.00000000E+000
-2.09443874E+001 -6.58081102E+000 0.00000000E+000
-1.56252813E+000 2.00199757E+001 0.00000000E+000
1.69096434E+000 1.59887323E+001 0.00000000E+000
1.69573748E+000 1.39958906E+001 0.00000000E+000
1.70559001E+000 1.19987364E+001 0.00000000E+000
1.71235800E+000 9.99965000E+000 0.00000000E+000
1.70500433E+000 5.99998617E+000 0.00000000E+000
1.67963386E+000 3.99886894E+000 0.00000000E+000
1.64330435E+000 1.99145818E+000 0.00000000E+000
9.05702949E-001 2.64169083E+001 0.00000000E+000
-1.23154819E+000 2.63408546E+001 0.00000000E+000
-1.48619592E+000 2.40970173E+001 0.00000000E+000
-1.52001476E+000 2.20616055E+001 0.00000000E+000
-1.60393560E+000 1.80015297E+001 0.00000000E+000
1.71200323E+000 7.99990702E+000 0.00000000E+000
1.57110965E+000 -2.04215574E+000 0.00000000E+000
-8.83958101E-001 -6.38697195E+000 0.00000000E+000
-2.94760537E+000 -6.42948389E+000 0.00000000E+000
-4.98543882E+000 -6.52348185E+000 0.00000000E+000
-6.97729588E+000 -3.23084092E+000 0.00000000E+000
-8.98907471E+000 -3.26648521E+000 0.00000000E+000
-1.09956169E+001 -3.28038645E+000 0.00000000E+000
-1.29984198E+001 -3.28506351E+000 0.00000000E+000
-1.49995422E+001 -3.28655887E+000 0.00000000E+000
-1.70005360E+001 -3.29590154E+000 0.00000000E+000
-1.89907722E+001 -3.31196833E+000 0.00000000E+000
-2.09331837E+001 -3.33244610E+000 0.00000000E+000
-1.61828923E+000 1.59975128E+001 0.00000000E+000
-1.61388779E+000 1.39984798E+001 0.00000000E+000
-1.60545456E+000 1.19994555E+001 0.00000000E+000
-1.59979153E+000 9.99984074E+000 0.00000000E+000
-1.59754860E+000 7.99995708E+000 0.00000000E+000
-1.60532558E+000 5.99998999E+000 0.00000000E+000
-1.63823593E+000 3.99409580E+000 0.00000000E+000
-1.70293796E+000 1.96242869E+000 0.00000000E+000
1.60747373E+000 -2.72606201E-002 0.00000000E+000
1.55121040E+000 -4.03328276E+000 0.00000000E+000
4.92077351E+000 2.64265118E+001 0.00000000E+000
1.72852290E+000 1.79747887E+001 0.00000000E+000
-2.27829800E+001 -3.40262842E+000 0.00000000E+000
-2.28547916E+001 -6.42256784E+000 0.00000000E+000
3.40620279E+000 2.06201363E+001 0.00000000E+000
[...]
POINT_DATA      243
SCALARS Ux float
LOOKUP_TABLE default
1.00000000E+000
9.28729742E-001
4.66883267E-001
3.92959468E-017
-1.84914797E-017
1.38777878E-017
2.08166817E-017
3.38271078E-017
-1.61546124E-017
-2.42861287E-017
-3.98986399E-017
2.77555756E-017
4.66915173E-001
1.00000000E+000
9.98690674E-001
9.94425346E-001
9.87505004E-001
9.78319454E-001
9.67338347E-001
9.55708601E-001
9.44869506E-001
9.36127305E-001
9.30793030E-001
9.26666454E-001
9.20719298E-001
9.10220360E-001
8.94641226E-001
8.73612430E-001
8.47344445E-001
8.16645887E-001
7.82659877E-001
7.46441440E-001
7.08697866E-001
6.69711620E-001
6.29271450E-001
5.86344415E-001
5.37577621E-001
3.95890503E-001
3.46992871E-001
3.03829946E-001
2.62929973E-001
2.23069472E-001
1.83673545E-001
1.44316738E-001
1.04219014E-001
6.05304493E-002
4.63735235E-001
4.54903346E-001
4.40117938E-001
4.19670959E-001
3.94041026E-001
3.64072005E-001
3.30812391E-001
2.95307062E-001
2.58393580E-001
2.20637295E-001
1.82346895E-001
1.43551388E-001
1.03687585E-001
5.99721770E-002
8.98888376E-001
8.42570873E-001
7.96729768E-001
7.54828688E-001
7.14893966E-001
6.76263825E-001
6.38887500E-001
6.03139996E-001
5.69753859E-001
5.39709689E-001
5.14021714E-001
4.93514245E-001
4.78619548E-001
4.70095110E-001
1.00000000E+000
1.00000000E+000
1.00000000E+000
1.00000000E+000
1.00000000E+000
1.00000000E+000
1.80141457E-002
8.91602081E-003
1.09444154E-002
1.86287534E-002
9.83893250E-001
9.26953936E-001
4.17497576E-001
6.50331400E-001
3.68044690E-001
9.73178167E-001
9.61289076E-001
9.49280443E-001
9.39080003E-001
9.18695427E-001
9.05536377E-001
8.87061009E-001
8.62963403E-001
8.33880731E-001
8.00956577E-001
7.65417075E-001
7.28196000E-001
6.89800418E-001
6.09416559E-001
5.65677919E-001
5.15891581E-001
3.24088819E-001
2.82761986E-001
2.42698398E-001
2.03253542E-001
1.64069277E-001
1.24994679E-001
8.60391245E-002
4.57652450E-002
4.70259751E-002
4.64069606E-001
4.51626869E-001
4.33238156E-001
4.09526502E-001
3.81055140E-001
3.48828907E-001
3.13945134E-001
2.77379547E-001
2.39828194E-001
2.01709289E-001
1.63222668E-001
1.24484373E-001
8.54393442E-002
9.13607865E-001
8.62975706E-001
8.16991075E-001
7.74583396E-001
7.34180231E-001
6.95036604E-001
6.56950269E-001
6.20118837E-001
5.85106723E-001
5.52824224E-001
5.24324847E-001
5.00782106E-001
4.83181426E-001
9.93328942E-001
9.90898179E-001
9.70120165E-001
9.88373562E-001
9.82888855E-001
4.25828502E-002
1.08234169E-002
4.65849042E-001
4.72980481E-001
9.32696250E-001
9.53793625E-001
4.67775342E-001
3.69013491E-001
3.34044247E-001
2.97249023E-001
2.59511906E-001
2.21304385E-001
1.82873883E-001
1.44630083E-001
1.07463551E-001
8.81988646E-001
8.33117014E-001
7.92461343E-001
7.52564452E-001
7.13349895E-001
6.36837834E-001
5.99988220E-001
5.64921144E-001
9.40569628E-001
9.29771801E-001
9.18817287E-001
9.03751059E-001
8.53934024E-001
6.74740542E-001
5.05704409E-001
4.50718366E-001
4.28753607E-001
4.00972793E-001
3.82978076E-001
3.41914487E-001
3.01488309E-001
2.61774162E-001
2.22513767E-001
1.83524858E-001
1.44995955E-001
1.07872695E-001
8.21225317E-001
7.85642447E-001
7.48426793E-001
7.10278567E-001
6.71501779E-001
6.32134707E-001
5.91934934E-001
5.50608614E-001
5.32913589E-001
4.84519702E-001
9.68006499E-001
8.73940548E-001
7.39286138E-002
7.26667463E-002
9.46581435E-001
9.80119128E-001
9.61974608E-001
4.59340518E-002
9.97377747E-001
2.53390233E-002
6.53750449E-002
9.38123672E-001
8.44807326E-001
5.10448455E-001
4.21508209E-001
4.68253013E-001
4.24799986E-001
3.92620185E-001
3.56527452E-001
3.18541244E-001
2.79977333E-001
2.41278651E-001
2.02577826E-001
1.64149213E-001
4.83479841E-001
6.15386994E-001
5.77327918E-001
4.54441149E-001
5.08650483E-001
5.40821256E-001
6.53847894E-001
6.92479515E-001
7.31139838E-001
7.69693711E-001
8.07855083E-001
9.22936337E-001
9.05959033E-001
8.78635225E-001
1.26821718E-001
9.10753681E-001
9.24530474E-002
9.76436247E-001
4.78312327E-001
4.48820950E-001
9.41492220E-001
9.30723379E-001
2.13656732E-002
