# vtk DataFile Version 1.0
ECM-CELL DIFFUSION-MECHANICS
ASCII

DATASET UNSTRUCTURED_GRID
POINTS      889 float
1.50000000E+001 3.00000000E+001 0.00000000E+000
-5.00000000E+000 3.00000000E+001 0.00000000E+000
-5.00000000E+000 0.00000000E+000 0.00000000E+000
-2.50000000E+001 0.00000000E+000 0.00000000E+000
-2.69134178E+001 -9.61939812E+000 0.00000000E+000
-2.85355339E+001 -8.53553391E+000 0.00000000E+000
-2.96193981E+001 -6.91341734E+000 0.00000000E+000
-3.00000000E+001 -5.00000000E+000 0.00000000E+000
-2.96193981E+001 -3.08658290E+000 0.00000000E+000
-2.85355339E+001 -1.46446609E+000 0.00000000E+000
-2.69134178E+001 -3.80602330E-001 0.00000000E+000
-2.50000000E+001 -1.00000000E+001 0.00000000E+000
5.00000000E+000 -1.00000000E+001 0.00000000E+000
5.00000000E+000 2.00000000E+001 0.00000000E+000
1.30000000E+001 3.00000000E+001 0.00000000E+000
1.10000000E+001 3.00000000E+001 0.00000000E+000
9.00000000E+000 3.00000000E+001 0.00000000E+000
7.00000000E+000 3.00000000E+001 0.00000000E+000
5.00000000E+000 3.00000000E+001 0.00000000E+000
3.00000000E+000 3.00000000E+001 0.00000000E+000
1.00000000E+000 3.00000000E+001 0.00000000E+000
-1.00000000E+000 3.00000000E+001 0.00000000E+000
-3.00000000E+000 3.00000000E+001 0.00000000E+000
-5.00000000E+000 2.80000000E+001 0.00000000E+000
-5.00000000E+000 2.60000000E+001 0.00000000E+000
-5.00000000E+000 2.40000000E+001 0.00000000E+000
-5.00000000E+000 2.20000000E+001 0.00000000E+000
-5.00000000E+000 2.00000000E+001 0.00000000E+000
-5.00000000E+000 1.80000000E+001 0.00000000E+000
-5.00000000E+000 1.60000000E+001 0.00000000E+000
-5.00000000E+000 1.40000000E+001 0.00000000E+000
-5.00000000E+000 1.20000000E+001 0.00000000E+000
-5.00000000E+000 1.00000000E+001 0.00000000E+000
-5.00000000E+000 8.00000000E+000 0.00000000E+000
-5.00000000E+000 6.00000000E+000 0.00000000E+000
-5.00000000E+000 4.00000000E+000 0.00000000E+000
-5.00000000E+000 2.00000000E+000 0.00000000E+000
-7.00000000E+000 0.00000000E+000 0.00000000E+000
-9.00000000E+000 0.00000000E+000 0.00000000E+000
-1.10000000E+001 0.00000000E+000 0.00000000E+000
-1.30000000E+001 0.00000000E+000 0.00000000E+000
-1.50000000E+001 0.00000000E+000 0.00000000E+000
-1.70000000E+001 0.00000000E+000 0.00000000E+000
-1.90000000E+001 0.00000000E+000 0.00000000E+000
-2.10000000E+001 0.00000000E+000 0.00000000E+000
-2.30000000E+001 0.00000000E+000 0.00000000E+000
3.00000000E+000 -1.00000000E+001 0.00000000E+000
1.00000000E+000 -1.00000000E+001 0.00000000E+000
-1.00000000E+000 -1.00000000E+001 0.00000000E+000
-3.00000000E+000 -1.00000000E+001 0.00000000E+000
-5.00000000E+000 -1.00000000E+001 0.00000000E+000
-7.00000000E+000 -1.00000000E+001 0.00000000E+000
-9.00000000E+000 -1.00000000E+001 0.00000000E+000
-1.10000000E+001 -1.00000000E+001 0.00000000E+000
-1.30000000E+001 -1.00000000E+001 0.00000000E+000
-1.50000000E+001 -1.00000000E+001 0.00000000E+000
-1.70000000E+001 -1.00000000E+001 0.00000000E+000
-1.90000000E+001 -1.00000000E+001 0.00000000E+000
-2.10000000E+001 -1.00000000E+001 0.00000000E+000
-2.30000000E+001 -1.00000000E+001 0.00000000E+000
5.00000000E+000 1.80000000E+001 0.00000000E+000
5.00000000E+000 1.60000000E+001 0.00000000E+000
5.00000000E+000 1.40000000E+001 0.00000000E+000
5.00000000E+000 1.20000000E+001 0.00000000E+000
5.00000000E+000 1.00000000E+001 0.00000000E+000
5.00000000E+000 8.00000000E+000 0.00000000E+000
5.00000000E+000 6.00000000E+000 0.00000000E+000
5.00000000E+000 4.00000000E+000 0.00000000E+000
5.00000000E+000 2.00000000E+000 0.00000000E+000
5.00000000E+000 0.00000000E+000 0.00000000E+000
5.00000000E+000 -2.00000000E+000 0.00000000E+000
5.00000000E+000 -4.00000000E+000 0.00000000E+000
5.00000000E+000 -6.00000000E+000 0.00000000E+000
5.00000000E+000 -8.00000000E+000 0.00000000E+000
6.42857122E+000 2.14285717E+001 0.00000000E+000
7.85714293E+000 2.28571434E+001 0.00000000E+000
9.28571415E+000 2.42857151E+001 0.00000000E+000
1.07142859E+001 2.57142849E+001 0.00000000E+000
1.21428576E+001 2.71428566E+001 0.00000000E+000
1.35714283E+001 2.85714283E+001 0.00000000E+000
-2.63336372E+001 -7.76659107E+000 0.00000000E+000
-2.82226868E+001 -6.43824339E+000 0.00000000E+000
-2.81175652E+001 -4.60588837E+000 0.00000000E+000
-2.61591434E+001 -2.10037327E+000 0.00000000E+000
7.94419193E+000 2.81601086E+001 0.00000000E+000
-3.19118237E+000 2.72962761E+001 0.00000000E+000
-5.94074678E+000 -1.56135583E+000 0.00000000E+000
-3.28010941E+000 6.99999666E+000 0.00000000E+000
-7.98214865E+000 -1.62386549E+000 0.00000000E+000
5.94069958E+000 2.82131767E+001 0.00000000E+000
3.96576309E+000 2.81945496E+001 0.00000000E+000
1.96850979E+000 2.81876316E+001 0.00000000E+000
-9.25469864E-003 2.82110806E+001 0.00000000E+000
-3.19306159E+000 2.51208878E+001 0.00000000E+000
-3.24140286E+000 2.30419273E+001 0.00000000E+000
-3.26721168E+000 2.10157700E+001 0.00000000E+000
-3.29015899E+000 1.90030117E+001 0.00000000E+000
-3.29848814E+000 1.69995918E+001 0.00000000E+000
-3.29507470E+000 1.49994574E+001 0.00000000E+000
-3.28950334E+000 1.29997454E+001 0.00000000E+000
-3.28517389E+000 1.09999161E+001 0.00000000E+000
-3.28540468E+000 8.99997520E+000 0.00000000E+000
-3.28817058E+000 4.99999905E+000 0.00000000E+000
-3.32450199E+000 2.98746324E+000 0.00000000E+000
-3.41863847E+000 9.27179158E-001 0.00000000E+000
-9.99433708E+000 -1.64214647E+000 0.00000000E+000
-1.19982300E+001 -1.64728785E+000 0.00000000E+000
-1.39994688E+001 -1.64868796E+000 0.00000000E+000
-1.59998932E+001 -1.64905524E+000 0.00000000E+000
-1.80005169E+001 -1.65485740E+000 0.00000000E+000
-1.99944210E+001 -1.67004955E+000 0.00000000E+000
-2.19607010E+001 -1.70543468E+000 0.00000000E+000
-2.40205898E+001 -8.05579758E+000 0.00000000E+000
-2.39267063E+001 -1.82353294E+000 0.00000000E+000
2.29777122E+000 -8.18962097E+000 0.00000000E+000
1.23059466E-001 -8.18267441E+000 0.00000000E+000
-1.95802188E+000 -8.22096157E+000 0.00000000E+000
-3.98471189E+000 -8.24636459E+000 0.00000000E+000
-5.99523783E+000 -8.26851940E+000 0.00000000E+000
-7.99814987E+000 -8.27763176E+000 0.00000000E+000
-9.99911308E+000 -8.28131580E+000 0.00000000E+000
-1.19996176E+001 -8.28250790E+000 0.00000000E+000
-1.39998579E+001 -8.28286648E+000 0.00000000E+000
-1.59999981E+001 -8.28308964E+000 0.00000000E+000
-1.80003262E+001 -8.28923416E+000 0.00000000E+000
-1.99951019E+001 -8.28801823E+000 0.00000000E+000
-2.19786606E+001 -8.23145771E+000 0.00000000E+000
3.37062716E+000 1.89233551E+001 0.00000000E+000
3.34054041E+000 1.69807224E+001 0.00000000E+000
3.33640957E+000 1.49944878E+001 0.00000000E+000
3.34315801E+000 1.29984617E+001 0.00000000E+000
3.34957194E+000 1.09995937E+001 0.00000000E+000
3.35198402E+000 8.99989700E+000 0.00000000E+000
3.35113668E+000 6.99997568E+000 0.00000000E+000
3.34448671E+000 4.99999523E+000 0.00000000E+000
3.32652950E+000 2.99973011E+000 0.00000000E+000
3.30527616E+000 9.98020113E-001 0.00000000E+000
3.28119373E+000 -1.01071751E+000 0.00000000E+000
3.25898099E+000 -3.01927686E+000 0.00000000E+000
3.24397135E+000 -5.00071239E+000 0.00000000E+000
1.02151985E+001 2.80007057E+001 0.00000000E+000
8.72700691E+000 2.62242470E+001 0.00000000E+000
4.53118944E+000 2.19883575E+001 0.00000000E+000
7.42255640E+000 2.47146339E+001 0.00000000E+000
6.02210903E+000 2.33871956E+001 0.00000000E+000
-2.49141693E+001 -5.84206676E+000 0.00000000E+000
-2.77587090E+001 -3.09401059E+000 0.00000000E+000
-3.74367332E+000 -1.32242095E+000 0.00000000E+000
3.37542582E+000 -6.68383884E+000 0.00000000E+000
-1.68782008E+000 2.83659058E+001 0.00000000E+000
2.93006825E+000 2.63407249E+001 0.00000000E+000
1.37449419E+000 -6.19837618E+000 0.00000000E+000
-6.99313116E+000 -6.56894302E+000 0.00000000E+000
-8.99560261E+000 -6.58624029E+000 0.00000000E+000
-1.09978485E+001 -6.59370756E+000 0.00000000E+000
-1.29991169E+001 -6.59640884E+000 0.00000000E+000
-1.49997482E+001 -6.59741163E+000 0.00000000E+000
-1.70005054E+001 -6.60687542E+000 0.00000000E+000
-1.89910336E+001 -6.61446953E+000 0.00000000E+000
-2.09443874E+001 -6.58081102E+000 0.00000000E+000
-1.56252813E+000 2.00199757E+001 0.00000000E+000
1.69096434E+000 1.59887323E+001 0.00000000E+000
1.69573748E+000 1.39958906E+001 0.00000000E+000
1.70559001E+000 1.19987364E+001 0.00000000E+000
1.71235800E+000 9.99965000E+000 0.00000000E+000
1.70500433E+000 5.99998617E+000 0.00000000E+000
1.67963386E+000 3.99886894E+000 0.00000000E+000
1.64330435E+000 1.99145818E+000 0.00000000E+000
9.05702949E-001 2.64169083E+001 0.00000000E+000
-1.23154819E+000 2.63408546E+001 0.00000000E+000
-1.48619592E+000 2.40970173E+001 0.00000000E+000
-1.52001476E+000 2.20616055E+001 0.00000000E+000
-1.60393560E+000 1.80015297E+001 0.00000000E+000
1.71200323E+000 7.99990702E+000 0.00000000E+000
1.57110965E+000 -2.04215574E+000 0.00000000E+000
-8.83958101E-001 -6.38697195E+000 0.00000000E+000
-2.94760537E+000 -6.42948389E+000 0.00000000E+000
-4.98543882E+000 -6.52348185E+000 0.00000000E+000
-6.97729588E+000 -3.23084092E+000 0.00000000E+000
-8.98907471E+000 -3.26648521E+000 0.00000000E+000
-1.09956169E+001 -3.28038645E+000 0.00000000E+000
-1.29984198E+001 -3.28506351E+000 0.00000000E+000
-1.49995422E+001 -3.28655887E+000 0.00000000E+000
-1.70005360E+001 -3.29590154E+000 0.00000000E+000
-1.89907722E+001 -3.31196833E+000 0.00000000E+000
-2.09331837E+001 -3.33244610E+000 0.00000000E+000
-1.61828923E+000 1.59975128E+001 0.00000000E+000
-1.61388779E+000 1.39984798E+001 0.00000000E+000
-1.60545456E+000 1.19994555E+001 0.00000000E+000
-1.59979153E+000 9.99984074E+000 0.00000000E+000
-1.59754860E+000 7.99995708E+000 0.00000000E+000
-1.60532558E+000 5.99998999E+000 0.00000000E+000
-1.63823593E+000 3.99409580E+000 0.00000000E+000
-1.70293796E+000 1.96242869E+000 0.00000000E+000
1.60747373E+000 -2.72606201E-002 0.00000000E+000
1.55121040E+000 -4.03328276E+000 0.00000000E+000
4.92077351E+000 2.64265118E+001 0.00000000E+000
1.72852290E+000 1.79747887E+001 0.00000000E+000
-2.27829800E+001 -3.40262842E+000 0.00000000E+000
-2.28547916E+001 -6.42256784E+000 0.00000000E+000
3.40620279E+000 2.06201363E+001 0.00000000E+000
[...]
POINT_DATA      889
SCALARS Ux float
LOOKUP_TABLE default
1.00000000E+000
9.58885986E-001
4.19080989E-001
2.77555756E-017
0.00000000E+000
-1.73472348E-017
-4.51027094E-017
1.10154941E-016
-2.08166817E-017
0.00000000E+000
0.00000000E+000
-0.00000000E+000
3.56861443E-001
1.00000000E+000
1.05933226E+000
9.94549238E-001
1.01778496E+000
9.00635201E-001
9.49613389E-001
9.92730176E-001
9.48446291E-001
9.12902588E-001
9.58190791E-001
9.59581181E-001
9.41085052E-001
9.50451699E-001
8.81248240E-001
9.26549050E-001
8.53683074E-001
8.88825041E-001
8.11745549E-001
6.96148844E-001
7.36669093E-001
6.90838977E-001
8.07635532E-001
6.60436182E-001
2.59874781E-001
3.32898462E-001
2.47779207E-001
6.76500681E-002
1.94702849E-001
2.60031151E-001
5.75935858E-002
-2.16524623E-002
-3.05535127E-002
5.04419702E-002
3.83307737E-001
4.32547964E-001
4.22321950E-001
4.12539297E-001
4.11087503E-001
3.52023312E-001
2.91819687E-001
2.80102900E-001
2.08169869E-001
1.84666060E-001
1.58159219E-001
8.00879114E-002
7.51862668E-002
-4.99392588E-002
9.34658892E-001
8.34168922E-001
8.56514163E-001
8.06436155E-001
7.47282701E-001
7.41457037E-001
6.77722398E-001
6.59504817E-001
6.12863609E-001
5.93594547E-001
5.68906064E-001
5.22427126E-001
4.87096963E-001
3.30415149E-001
1.00000000E+000
1.00000000E+000
1.00000000E+000
1.00000000E+000
1.00000000E+000
1.00000000E+000
1.00514643E-002
2.19660430E-003
5.07844040E-003
8.22230652E-003
1.00833153E+000
9.60284397E-001
3.92843611E-001
6.77765187E-001
3.61673424E-001
9.75189624E-001
9.69967644E-001
9.64019406E-001
9.51590875E-001
9.50537716E-001
9.39792003E-001
9.25827911E-001
9.03894106E-001
8.84262381E-001
8.72486843E-001
8.22900540E-001
7.73782092E-001
7.29939026E-001
7.03162388E-001
6.36295253E-001
5.30446507E-001
2.86890858E-001
2.14291756E-001
1.98988319E-001
1.81705881E-001
1.29742881E-001
6.52244957E-002
2.18116114E-002
4.06614013E-002
1.98487393E-002
4.03494215E-001
4.36444600E-001
4.17528782E-001
4.11124014E-001
4.03447285E-001
3.18230893E-001
2.90222256E-001
2.62520613E-001
1.88931128E-001
1.81949676E-001
1.33688221E-001
7.10661440E-002
4.36327383E-002
9.94398427E-001
8.64189919E-001
8.53894291E-001
8.40261912E-001
7.89378820E-001
7.36941701E-001
7.30938856E-001
6.63487096E-001
6.50291467E-001
5.93673426E-001
6.07815868E-001
5.15700864E-001
5.66941023E-001
9.94232092E-001
1.00118394E+000
9.99829339E-001
9.85028311E-001
9.83624122E-001
1.45474141E-002
4.83674487E-003
4.51983788E-001
3.66181423E-001
9.43519029E-001
9.83311930E-001
4.22958917E-001
3.64268833E-001
3.24450787E-001
2.80902387E-001
2.50315865E-001
1.83077557E-001
1.71521510E-001
1.25933114E-001
6.42206972E-002
9.58190204E-001
9.18205194E-001
8.30655158E-001
8.43615462E-001
7.82949664E-001
7.35353442E-001
6.49302523E-001
6.41501178E-001
9.70592243E-001
9.51129043E-001
9.47815522E-001
9.26558702E-001
8.94976439E-001
7.30165148E-001
5.26832709E-001
4.41268375E-001
4.14999512E-001
4.03378376E-001
3.40843278E-001
3.15627227E-001
2.30479394E-001
2.03660068E-001
2.04034943E-001
1.29233756E-001
8.74933169E-002
5.22310635E-002
8.65880336E-001
8.56176422E-001
7.88309696E-001
7.64715911E-001
7.23808895E-001
6.92788261E-001
6.76949956E-001
5.40001877E-001
5.84069313E-001
5.36458768E-001
9.58522335E-001
9.00768999E-001
2.44250520E-002
4.64058912E-002
9.64437036E-001
1.00226781E+000
9.81816054E-001
2.01645414E-002
1.00647621E+000
9.98751758E-003
2.15358518E-002
9.63535785E-001
9.02184993E-001
5.11202884E-001
3.97113931E-001
4.24942110E-001
4.25701537E-001
3.82742594E-001
3.41957391E-001
3.08409734E-001
2.50462243E-001
2.15383793E-001
1.83833982E-001
1.38360876E-001
5.18245952E-001
6.82832041E-001
6.58283498E-001
4.29205056E-001
5.27649538E-001
5.84093449E-001
7.19753733E-001
7.50073146E-001
7.83104054E-001
8.36292447E-001
8.67579759E-001
9.48768751E-001
9.25804639E-001
9.17458786E-001
9.82638454E-002
9.35409285E-001
5.19292276E-002
9.85556248E-001
4.83638886E-001
4.32700179E-001
9.69969334E-001
9.60637209E-001
7.40718079E-003
1.00918645E+000
9.96698482E-001
9.96821599E-001
9.60031723E-001
9.56676971E-001
9.57398538E-001
4.11241132E-001
4.11381493E-001
4.11742840E-001
7.38713047E-001
7.36060943E-001
7.39984775E-001
4.05898272E-001
3.98607566E-001
3.53827232E-001
3.34222430E-002
2.20311707E-002
2.49037437E-002
2.68620218E-003
-1.56117868E-017
8.55755286E-003
1.00226856E-004
5.02346939E-003
9.04904091E-003
6.71890479E-003
6.44377981E-003
2.92848576E-003
3.07573689E-003
3.45173248E-003
7.94011126E-003
1.00707968E-002
9.08287010E-003
1.02033278E-002
7.55882295E-003
2.67615968E-003
9.92162114E-001
9.87451313E-001
9.94850693E-001
1.00060339E+000
9.76355108E-001
9.47895598E-001
9.56446923E-001
9.86764859E-001
9.77692209E-001
9.62462837E-001
9.55063119E-001
9.73100199E-001
9.62739254E-001
9.80209860E-001
9.65473500E-001
9.73394755E-001
9.62030711E-001
9.67750642E-001
9.56826338E-001
9.40337707E-001
9.40100129E-001
9.39752532E-001
9.59233584E-001
9.37433520E-001
9.45749268E-001
9.54293038E-001
9.52999099E-001
9.49902300E-001
9.49697972E-001
9.40008802E-001
9.29140544E-001
9.34804513E-001
9.29456907E-001
9.21705237E-001
9.19838708E-001
9.02984551E-001
8.94351483E-001
9.02020416E-001
8.90277077E-001
8.91679666E-001
8.83305162E-001
8.65296186E-001
8.47780775E-001
8.66941127E-001
8.40297995E-001
8.12309320E-001
8.12160926E-001
7.70884862E-001
7.27868256E-001
7.11067378E-001
7.15035161E-001
7.09600543E-001
6.96983258E-001
6.95174096E-001
6.81274175E-001
7.13789255E-001
6.67304222E-001
5.95087803E-001
6.06080477E-001
5.29849235E-001
4.38964714E-001
4.38883017E-001
4.38792368E-001
3.31241622E-001
3.46082472E-001
2.99137514E-001
2.53078751E-001
2.60354815E-001
2.15553204E-001
2.12164153E-001
1.93679231E-001
1.81718947E-001
1.84689546E-001
2.00455325E-001
1.99210194E-001
1.67720757E-001
1.82596477E-001
1.40850820E-001
1.11619499E-001
1.07960599E-001
5.86632981E-002
3.82290496E-002
4.13152362E-002
2.28270769E-002
2.67554298E-002
3.61326423E-002
5.28889815E-002
2.12314959E-002
8.52801288E-003
6.68209931E-003
4.08527535E-001
4.21750681E-001
3.43638296E-001
4.07152027E-001
4.00642633E-001
4.33155947E-001
4.32549168E-001
4.33903722E-001
4.20494064E-001
4.09525295E-001
4.09333115E-001
4.16908237E-001
4.15024295E-001
4.18342826E-001
3.93554464E-001
3.92332512E-001
4.04248992E-001
3.32263259E-001
3.29359707E-001
3.64763755E-001
3.25648463E-001
3.33240133E-001
2.83818845E-001
2.84937372E-001
2.87928748E-001
2.50603138E-001
2.61384480E-001
2.60204411E-001
1.88511396E-001
1.93388504E-001
1.95203828E-001
1.70854486E-001
1.71640157E-001
1.74271400E-001
1.29457686E-001
1.41244679E-001
1.37693751E-001
6.46431120E-002
6.70757578E-002
7.60572001E-002
9.32683086E-001
8.99794890E-001
9.05168740E-001
9.17904716E-001
9.02031789E-001
9.13016161E-001
8.45770525E-001
8.46599993E-001
9.13016333E-001
8.37389619E-001
8.46746132E-001
8.40687444E-001
8.34150291E-001
8.39068516E-001
7.86140444E-001
7.97260319E-001
7.96426855E-001
7.21740224E-001
7.25200334E-001
7.34081440E-001
6.63794067E-001
6.66981657E-001
7.35417211E-001
6.56546322E-001
6.65370124E-001
6.38183840E-001
6.39403924E-001
6.43924850E-001
5.98595837E-001
5.87928910E-001
6.00665365E-001
5.21751711E-001
5.42392021E-001
5.36439172E-001
5.46234552E-001
5.18781383E-001
5.47412778E-001
3.56698637E-001
3.57446073E-001
3.72559808E-001
1.00214284E+000
9.99576032E-001
1.00237501E+000
9.98945216E-001
1.00000000E+000
9.95592413E-001
1.00414357E+000
1.00397447E+000
1.01016778E+000
1.00823962E+000
9.98679801E-001
1.00647698E+000
1.01553859E+000
1.00000000E+000
9.98918495E-001
1.00086875E-004
1.56125113E-017
-2.77555756E-017
2.38936523E-003
4.75699214E-017
9.41646883E-004
7.80625564E-018
2.66906105E-003
3.32426672E-003
4.29639521E-003
-3.75140982E-016
4.25532030E-002
4.92315439E-002
5.09931429E-002
-1.25448792E-016
9.99629193E-001
9.95171947E-001
9.71000869E-001
9.53481446E-001
9.90147186E-001
9.65802629E-001
4.10721049E-001
4.26570982E-001
3.41115641E-001
7.33477976E-001
6.99443957E-001
2.79217399E-001
3.15810054E-001
3.20429935E-001
9.46480891E-001
1.00047990E+000
1.00593370E+000
9.76532441E-001
9.92226236E-001
9.86677539E-001
9.90098671E-001
9.57405747E-001
9.49000498E-001
9.57135050E-001
9.62087051E-001
9.69809118E-001
9.54042242E-001
9.37766244E-001
9.62338686E-001
9.68522477E-001
9.58547362E-001
9.34182132E-001
9.58150880E-001
9.55568324E-001
9.47225700E-001
9.27008403E-001
9.30903262E-001
9.29152690E-001
9.23802845E-001
9.00224152E-001
9.57815614E-001
9.70905274E-001
8.95303447E-001
9.07066366E-001
8.57088455E-001
8.64516587E-001
8.90383486E-001
8.91901098E-001
8.37014800E-001
8.52666300E-001
8.40021091E-001
7.64012310E-001
7.59896071E-001
8.35198331E-001
8.40495699E-001
8.45324206E-001
7.62705342E-001
7.27569097E-001
7.82858208E-001
7.81828946E-001
7.93844248E-001
7.26824947E-001
7.33625824E-001
7.32410210E-001
7.37507265E-001
6.47154731E-001
6.63979978E-001
6.59347573E-001
5.16902574E-001
4.90110728E-001
6.43798806E-001
6.45973978E-001
6.53123397E-001
4.01702522E-001
3.83049262E-001
3.68108303E-001
5.95345197E-001
5.98107369E-001
6.00572417E-001
2.06092132E-001
2.88302759E-001
2.84917388E-001
2.90712299E-001
1.76816216E-001
2.53010784E-001
2.55040960E-001
2.67112758E-001
2.00843491E-001
1.89754384E-001
1.88428899E-001
1.95157999E-001
1.30390883E-001
1.77350877E-001
1.77351180E-001
1.82694793E-001
3.84936719E-002
1.24998995E-001
1.27844343E-001
1.40685503E-001
2.15226050E-002
1.73271394E-002
7.26921616E-002
6.69853249E-002
7.35586259E-002
2.45030688E-002
1.41529672E-002
2.72873810E-002
1.80005596E-002
1.22659353E-002
8.42875548E-003
3.00902736E-002
1.07099800E-002
1.20187595E-002
1.28076995E-002
1.56887379E-002
1.34445629E-002
4.37513288E-001
5.33624776E-001
5.34422155E-001
5.81910683E-001
4.23985502E-001
4.18653558E-001
4.35133780E-001
4.11624853E-001
4.16356765E-001
4.21651572E-001
4.21275169E-001
4.10525966E-001
4.07775991E-001
4.05549946E-001
4.22735227E-001
3.92404490E-001
3.63910936E-001
3.66870533E-001
3.85228979E-001
3.09494813E-001
3.44542329E-001
3.57472151E-001
2.81029907E-001
3.14812913E-001
3.29358015E-001
3.20198535E-001
2.52915133E-001
2.54484058E-001
2.80215125E-001
2.73897004E-001
1.77530351E-001
2.22163327E-001
2.51920500E-001
2.33795181E-001
1.77507058E-001
1.89242386E-001
1.90609081E-001
1.91851639E-001
1.22793609E-001
1.38708300E-001
1.62345055E-001
1.57357138E-001
5.67075145E-002
1.08217325E-001
1.36738331E-001
1.15636203E-001
3.75386268E-002
3.84229992E-002
2.52555462E-002
3.58392727E-002
8.74211671E-001
9.81369835E-001
9.79879646E-001
9.85621683E-001
9.77570209E-001
8.85374803E-001
8.99329927E-001
8.90190163E-001
8.37722585E-001
8.75494496E-001
8.49823978E-001
8.39925348E-001
8.37151366E-001
8.43392980E-001
8.41842518E-001
7.75755701E-001
8.13709259E-001
7.97562199E-001
7.74210314E-001
7.28385727E-001
7.25171468E-001
7.15305591E-001
7.20670422E-001
7.26710699E-001
6.98438683E-001
6.93316523E-001
6.49039010E-001
6.89038215E-001
6.67674490E-001
6.45958866E-001
6.56264651E-001
6.45858861E-001
6.52539086E-001
5.90766553E-001
5.98772768E-001
6.04054790E-001
5.93595628E-001
5.88998426E-001
4.38838634E-001
5.14107288E-001
5.33013578E-001
5.55046173E-001
5.43490974E-001
5.26683038E-001
5.23305926E-001
3.98728090E-001
4.18279469E-001
3.97151955E-001
3.76562274E-001
1.00964746E+000
9.96249409E-001
1.00000000E+000
9.95819367E-001
1.00000000E+000
1.01069803E+000
9.83780877E-001
1.00000000E+000
9.76018794E-001
9.82869241E-001
9.82981148E-001
1.00000000E+000
9.87152614E-001
1.01141601E+000
1.52446563E-002
4.30258763E-002
4.00711686E-002
-2.89698820E-016
7.67561542E-003
5.08501824E-001
4.33779488E-001
4.31716918E-001
9.30925981E-001
9.47346641E-001
9.49131233E-001
9.88421713E-001
9.68034425E-001
5.29844087E-001
5.27852399E-001
5.23042152E-001
3.99800077E-001
4.07522893E-001
3.29850603E-001
3.19944041E-001
2.96042997E-001
2.67496365E-001
2.38945373E-001
2.32640607E-001
1.91142172E-001
1.82257369E-001
1.82275301E-001
1.58100160E-001
1.29331646E-001
1.19333046E-001
7.11881956E-002
7.68582174E-002
5.64324166E-002
4.93761562E-002
4.80675171E-002
4.64925171E-002
9.43992470E-001
8.99690835E-001
8.95670562E-001
8.93001083E-001
9.01376596E-001
8.62309563E-001
8.13327324E-001
7.56856694E-001
7.64364689E-001
7.42210876E-001
7.43335150E-001
7.40099962E-001
7.26165011E-001
6.66317883E-001
6.12657547E-001
6.13014941E-001
5.76717941E-001
5.56132866E-001
5.16074513E-001
9.28442926E-001
9.47297215E-001
9.42997690E-001
9.65911036E-001
9.56648868E-001
9.51415409E-001
9.52647246E-001
9.29769781E-001
9.77532845E-001
9.65450123E-001
9.36552307E-001
8.86938738E-001
8.80414763E-001
7.55770782E-001
5.25657444E-001
5.24516048E-001
5.82556006E-001
4.26482865E-001
4.37894386E-001
4.32169062E-001
4.27051311E-001
4.09134563E-001
4.08355110E-001
4.01772820E-001
3.41482375E-001
3.39925169E-001
3.18562761E-001
3.23867154E-001
3.06719508E-001
2.48693555E-001
2.36826139E-001
2.44646300E-001
2.07594279E-001
1.94294235E-001
2.13596849E-001
1.82263017E-001
2.07224873E-001
1.77383427E-001
1.55143629E-001
1.44060843E-001
1.38354880E-001
1.00778808E-001
8.77887056E-002
1.00741563E-001
4.24407027E-002
4.79879331E-002
2.73715858E-002
8.66662247E-001
8.44397443E-001
8.61803498E-001
8.09819205E-001
7.88647620E-001
7.62920609E-001
7.56623740E-001
7.22258033E-001
7.21312503E-001
7.04008594E-001
6.87426331E-001
6.68192386E-001
6.91687959E-001
5.84008816E-001
5.64783983E-001
5.16314620E-001
5.95845568E-001
6.31676765E-001
5.28530195E-001
9.82059993E-001
9.52205211E-001
9.20944471E-001
9.32362088E-001
9.60260284E-001
9.56408357E-001
2.16860159E-002
9.75482033E-001
9.94618720E-001
9.88042419E-001
9.70653779E-001
1.34168030E-002
1.49500155E-002
2.11650967E-002
1.00000000E+000
1.02006292E+000
4.26032012E-003
1.08522229E-002
3.64803874E-002
9.26474576E-001
9.67858851E-001
9.03230727E-001
4.83795410E-001
5.06897293E-001
5.11820527E-001
4.41862990E-001
4.42950283E-001
4.88984065E-001
4.47006967E-001
4.49626559E-001
4.31394290E-001
3.98521149E-001
4.12674150E-001
4.26528489E-001
3.55349030E-001
4.37525216E-001
6.64070476E-001
6.90665765E-001
7.20557779E-001
6.62506230E-001
4.24739610E-001
7.27315285E-001
7.27355044E-001
7.62224884E-001
7.79955316E-001
7.95104053E-001
8.17600983E-001
8.47837224E-001
8.47170609E-001
8.73058507E-001
9.60247392E-001
9.36416621E-001
9.37391115E-001
9.19228760E-001
9.14902874E-001
9.28783986E-001
6.72598782E-002
1.00727056E+000
4.35870742E-001
4.11407427E-001
9.56850884E-001
