# vtk DataFile Version 1.0
ECM-CELL DIFFUSION-MECHANICS
ASCII

DATASET UNSTRUCTURED_GRID
POINTS      777 float
1.50000000E+01 3.00000000E+01 0.00000000E+00
-5.00000000E+00 3.00000000E+01 0.00000000E+00
5.00000000E+00 2.00000000E+01 0.00000000E+00
5.00000000E+00 -1.00000000E+01 0.00000000E+00
-2.50000000E+01 -1.00000000E+01 0.00000000E+00
-2.69134178E+01 -9.61939812E+00 0.00000000E+00
-2.85355339E+01 -8.53553391E+00 0.00000000E+00
-2.96193981E+01 -6.91341734E+00 0.00000000E+00
-3.00000000E+01 -5.00000000E+00 0.00000000E+00
-2.96193981E+01 -3.08658290E+00 0.00000000E+00
-2.85355339E+01 -1.46446609E+00 0.00000000E+00
-2.69134178E+01 -3.80602330E-01 0.00000000E+00
-2.50000000E+01 0.00000000E+00 0.00000000E+00
-5.00000000E+00 0.00000000E+00 0.00000000E+00
1.30000000E+01 3.00000000E+01 0.00000000E+00
1.10000000E+01 3.00000000E+01 0.00000000E+00
9.00000000E+00 3.00000000E+01 0.00000000E+00
7.00000000E+00 3.00000000E+01 0.00000000E+00
5.00000000E+00 3.00000000E+01 0.00000000E+00
3.00000000E+00 3.00000000E+01 0.00000000E+00
1.00000000E+00 3.00000000E+01 0.00000000E+00
-1.00000000E+00 3.00000000E+01 0.00000000E+00
-3.00000000E+00 3.00000000E+01 0.00000000E+00
6.42857122E+00 2.14285717E+01 0.00000000E+00
7.85714293E+00 2.28571434E+01 0.00000000E+00
9.28571415E+00 2.42857151E+01 0.00000000E+00
1.07142859E+01 2.57142849E+01 0.00000000E+00
1.21428576E+01 2.71428566E+01 0.00000000E+00
1.35714283E+01 2.85714283E+01 0.00000000E+00
5.00000000E+00 1.80000000E+01 0.00000000E+00
5.00000000E+00 1.60000000E+01 0.00000000E+00
5.00000000E+00 1.40000000E+01 0.00000000E+00
5.00000000E+00 1.20000000E+01 0.00000000E+00
5.00000000E+00 1.00000000E+01 0.00000000E+00
5.00000000E+00 8.00000000E+00 0.00000000E+00
5.00000000E+00 6.00000000E+00 0.00000000E+00
5.00000000E+00 4.00000000E+00 0.00000000E+00
5.00000000E+00 2.00000000E+00 0.00000000E+00
5.00000000E+00 0.00000000E+00 0.00000000E+00
5.00000000E+00 -2.00000000E+00 0.00000000E+00
5.00000000E+00 -4.00000000E+00 0.00000000E+00
5.00000000E+00 -6.00000000E+00 0.00000000E+00
5.00000000E+00 -8.00000000E+00 0.00000000E+00
3.00000000E+00 -1.00000000E+01 0.00000000E+00
1.00000000E+00 -1.00000000E+01 0.00000000E+00
-1.00000000E+00 -1.00000000E+01 0.00000000E+00
-3.00000000E+00 -1.00000000E+01 0.00000000E+00
-5.00000000E+00 -1.00000000E+01 0.00000000E+00
-7.00000000E+00 -1.00000000E+01 0.00000000E+00
-9.00000000E+00 -1.00000000E+01 0.00000000E+00
-1.10000000E+01 -1.00000000E+01 0.00000000E+00
-1.30000000E+01 -1.00000000E+01 0.00000000E+00
-1.50000000E+01 -1.00000000E+01 0.00000000E+00
-1.70000000E+01 -1.00000000E+01 0.00000000E+00
-1.90000000E+01 -1.00000000E+01 0.00000000E+00
-2.10000000E+01 -1.00000000E+01 0.00000000E+00
-2.30000000E+01 -1.00000000E+01 0.00000000E+00
-7.00000000E+00 0.00000000E+00 0.00000000E+00
-9.00000000E+00 0.00000000E+00 0.00000000E+00
-1.10000000E+01 0.00000000E+00 0.00000000E+00
-1.30000000E+01 0.00000000E+00 0.00000000E+00
-1.50000000E+01 0.00000000E+00 0.00000000E+00
-1.70000000E+01 0.00000000E+00 0.00000000E+00
-1.90000000E+01 0.00000000E+00 0.00000000E+00
-2.10000000E+01 0.00000000E+00 0.00000000E+00
-2.30000000E+01 0.00000000E+00 0.00000000E+00
-5.00000000E+00 2.80000000E+01 0.00000000E+00
-5.00000000E+00 2.60000000E+01 0.00000000E+00
-5.00000000E+00 2.40000000E+01 0.00000000E+00
-5.00000000E+00 2.20000000E+01 0.00000000E+00
-5.00000000E+00 2.00000000E+01 0.00000000E+00
-5.00000000E+00 1.80000000E+01 0.00000000E+00
-5.00000000E+00 1.60000000E+01 0.00000000E+00
-5.00000000E+00 1.40000000E+01 0.00000000E+00
-5.00000000E+00 1.20000000E+01 0.00000000E+00
-5.00000000E+00 1.00000000E+01 0.00000000E+00
-5.00000000E+00 8.00000000E+00 0.00000000E+00
-5.00000000E+00 6.00000000E+00 0.00000000E+00
-5.00000000E+00 4.00000000E+00 0.00000000E+00
-5.00000000E+00 2.00000000E+00 0.00000000E+00
-2.59871254E+01 -7.91282892E+00 0.00000000E+00
-2.72089272E+01 -7.22517633E+00 0.00000000E+00
-2.66474552E+01 -5.39335680E+00 0.00000000E+00
-2.69874706E+01 -4.19447088E+00 0.00000000E+00
3.56631780E+00 1.81858082E+01 0.00000000E+00
3.45538449E+00 1.60969982E+01 0.00000000E+00
-8.99606419E+00 -8.32854271E+00 0.00000000E+00
1.15325785E+01 2.76091194E+01 0.00000000E+00
8.69346333E+00 2.86210556E+01 0.00000000E+00
6.79735470E+00 2.83068199E+01 0.00000000E+00
4.81789303E+00 2.81218548E+01 0.00000000E+00
2.81581450E+00 2.80152245E+01 0.00000000E+00
8.33386540E-01 2.80571632E+01 0.00000000E+00
3.39765048E+00 1.40790730E+01 0.00000000E+00
3.36072111E+00 1.20805902E+01 0.00000000E+00
3.33418083E+00 1.00849323E+01 0.00000000E+00
3.31360078E+00 8.08838463E+00 0.00000000E+00
3.29503798E+00 6.08961487E+00 0.00000000E+00
3.27511024E+00 4.08798981E+00 0.00000000E+00
3.24555063E+00 2.08999419E+00 0.00000000E+00
-3.39916706E+00 1.91835046E-01 0.00000000E+00
3.19515896E+00 7.99414515E-02 0.00000000E+00
3.08858156E+00 -1.95740485E+00 0.00000000E+00
2.94115114E+00 -4.00789595E+00 0.00000000E+00
2.95735145E+00 -6.02382755E+00 0.00000000E+00
2.99156761E+00 -8.02272415E+00 0.00000000E+00
-3.03548622E+00 -8.25239944E+00 0.00000000E+00
-5.03107357E+00 -8.30240726E+00 0.00000000E+00
-7.01400518E+00 -8.32370090E+00 0.00000000E+00
-1.09846535E+01 -8.33255196E+00 0.00000000E+00
-1.29763451E+01 -8.34380913E+00 0.00000000E+00
-1.49628611E+01 -8.35872173E+00 0.00000000E+00
-1.69386921E+01 -8.37445927E+00 0.00000000E+00
-1.88995705E+01 -8.38477707E+00 0.00000000E+00
-2.08368797E+01 -8.38374519E+00 0.00000000E+00
-2.27050743E+01 -8.35194588E+00 0.00000000E+00
-2.44529305E+01 -1.81291687E+00 0.00000000E+00
-2.44611835E+01 -8.25364876E+00 0.00000000E+00
-7.03477573E+00 -1.61946285E+00 0.00000000E+00
-9.00131798E+00 -1.63337088E+00 0.00000000E+00
-1.09891205E+01 -1.64573705E+00 0.00000000E+00
-1.29806490E+01 -1.65276051E+00 0.00000000E+00
-1.49665661E+01 -1.65118086E+00 0.00000000E+00
-1.69362106E+01 -1.64144766E+00 0.00000000E+00
-1.88823471E+01 -1.62573457E+00 0.00000000E+00
-2.07968693E+01 -1.61687005E+00 0.00000000E+00
-2.26661606E+01 -1.65481305E+00 0.00000000E+00
-3.14961743E+00 2.61050987E+01 0.00000000E+00
-3.21332860E+00 2.41569138E+01 0.00000000E+00
-3.23101664E+00 2.21709061E+01 0.00000000E+00
-3.19988894E+00 2.01672287E+01 0.00000000E+00
-3.19480872E+00 1.81522160E+01 0.00000000E+00
-3.22400498E+00 1.61377392E+01 0.00000000E+00
-3.26183391E+00 1.41241846E+01 0.00000000E+00
-3.29545403E+00 1.21142969E+01 0.00000000E+00
-3.32145929E+00 1.01066618E+01 0.00000000E+00
-3.34261227E+00 8.10189915E+00 0.00000000E+00
-3.36075759E+00 6.10010099E+00 0.00000000E+00
-3.37989211E+00 4.10786200E+00 0.00000000E+00
-3.39658475E+00 2.12506461E+00 0.00000000E+00
9.87431145E+00 2.69113979E+01 0.00000000E+00
5.55943680E+00 2.24666195E+01 0.00000000E+00
8.27692127E+00 2.52841549E+01 0.00000000E+00
1.21497765E+01 2.87516937E+01 0.00000000E+00
7.00510788E+00 2.38013420E+01 0.00000000E+00
-2.55711937E+01 -3.71893096E+00 0.00000000E+00
-2.53829994E+01 -6.46415377E+00 0.00000000E+00
-3.41579247E+00 -1.53762901E+00 0.00000000E+00
-3.08106852E+00 2.80612659E+01 0.00000000E+00
-8.99859238E+00 -6.65214443E+00 0.00000000E+00
-1.29351008E+00 2.61693573E+01 0.00000000E+00
6.86967373E+00 2.63770676E+01 0.00000000E+00
1.54031169E+00 2.17246723E+00 0.00000000E+00
1.31703186E+00 -1.76688719E+00 0.00000000E+00
-5.08228636E+00 -6.62115431E+00 0.00000000E+00
-9.00249004E+00 -3.29739213E+00 0.00000000E+00
-1.09824476E+01 -3.30994868E+00 0.00000000E+00
-1.29688711E+01 -3.32068324E+00 0.00000000E+00
-1.49453335E+01 -3.32586026E+00 0.00000000E+00
-1.68954639E+01 -3.31989431E+00 0.00000000E+00
-1.88051834E+01 -3.30147409E+00 0.00000000E+00
-2.24104786E+01 -3.31642485E+00 0.00000000E+00
-1.47017288E+00 2.42874813E+01 0.00000000E+00
4.75124407E+00 2.61952667E+01 0.00000000E+00
-1.41161871E+00 2.03558025E+01 0.00000000E+00
-1.41152394E+00 1.82831421E+01 0.00000000E+00
-1.47984684E+00 1.62193718E+01 0.00000000E+00
-1.55269098E+00 1.41849861E+01 0.00000000E+00
-1.61183786E+00 1.21700039E+01 0.00000000E+00
-1.65644002E+00 1.01618252E+01 0.00000000E+00
-1.69045985E+00 8.15654087E+00 0.00000000E+00
-1.74818420E+00 4.17103720E+00 0.00000000E+00
2.63595510E+00 2.58476467E+01 0.00000000E+00
5.85341334E-01 2.61480026E+01 0.00000000E+00
1.48443735E+00 1.99812949E-01 0.00000000E+00
7.22676218E-01 -3.93087220E+00 0.00000000E+00
-1.02083135E+00 -8.16479301E+00 0.00000000E+00
-7.03490305E+00 -6.64700460E+00 0.00000000E+00
-1.09789371E+01 -6.66079235E+00 0.00000000E+00
-1.29644680E+01 -6.67540455E+00 0.00000000E+00
-1.49419928E+01 -6.69405699E+00 0.00000000E+00
-1.68996048E+01 -6.70987225E+00 0.00000000E+00
-1.88245621E+01 -6.71467447E+00 0.00000000E+00
-2.06824856E+01 -6.69600010E+00 0.00000000E+00
-2.06575108E+01 -3.28913999E+00 0.00000000E+00
-2.24377365E+01 -6.66452074E+00 0.00000000E+00
-1.53943622E+00 2.23406563E+01 0.00000000E+00
1.86250246E+00 1.61861019E+01 0.00000000E+00
1.77246237E+00 1.41486263E+01 0.00000000E+00
1.71115601E+00 1.21418839E+01 0.00000000E+00
1.66675675E+00 1.01430874E+01 0.00000000E+00
1.63350880E+00 8.14535809E+00 0.00000000E+00
1.60673702E+00 6.14654064E+00 0.00000000E+00
-1.71792471E+00 6.15320969E+00 0.00000000E+00
1.58160424E+00 4.14921808E+00 0.00000000E+00
-1.77281892E+00 2.20080662E+00 0.00000000E+00
2.01078510E+00 1.82713623E+01 0.00000000E+00
-2.40447159E+01 -6.61500549E+00 0.00000000E+00
-2.40787086E+01 -3.44673610E+00 0.00000000E+00
3.91073895E+00 2.06671638E+01 0.00000000E+00
4.69771385E+00 2.40344315E+01 0.00000000E+00
2.23431134E+00 2.02954235E+01 0.00000000E+00
-2.63834591E+01 -6.32643604E+00 0.00000000E+00
2.15098262E-01 1.62336769E+01 0.00000000E+00
-5.16005945E+00 -3.28352356E+00 0.00000000E+00
9.15533721E-01 -6.09541035E+00 0.00000000E+00
-3.12387347E+00 -6.53723431E+00 0.00000000E+00
-5.13622618E+00 -4.95174408E+00 0.00000000E+00
-9.00362396E+00 -4.97516680E+00 0.00000000E+00
-1.09809561E+01 -4.98574305E+00 0.00000000E+00
-1.29646101E+01 -4.99896383E+00 0.00000000E+00
-1.49383945E+01 -5.01089621E+00 0.00000000E+00
-1.75341535E+00 -3.10992193E+00 0.00000000E+00
-7.05302477E+00 -4.96985292E+00 0.00000000E+00
[...]
POINT_DATA      777
SCALARS Ux float
LOOKUP_TABLE default
1.00000000E+00
4.50457961E-01
1.00000000E+00
2.43456656E-01
-4.99600361E-16
7.56339436E-16
3.81639165E-16
1.09634524E-15
-3.92047506E-16
2.63244287E-16
3.58220398E-16
5.41233725E-16
3.33066907E-16
3.78424663E-01
4.32532347E+00
2.38626267E+00
-2.29165074E+00
1.28743827E+00
1.91466504E+00
7.99333267E-01
1.07393172E+00
8.25986466E-01
1.49653919E+00
1.00000000E+00
1.00000000E+00
1.00000000E+00
1.00000000E+00
1.00000000E+00
1.00000000E+00
1.68140119E+00
6.01393046E-01
1.12723313E+00
9.10196499E-01
7.59663500E-01
8.23991507E-01
7.16031999E-01
8.01573796E-01
7.12089799E-01
6.73606254E-01
5.79628241E-01
-1.15053846E-01
5.09305805E-01
1.84846179E-01
-3.16769048E-01
-4.21064897E-01
-4.01992031E-01
4.70205902E-01
4.62926432E-01
4.30190868E-01
3.88899124E-01
-6.01167978E-01
1.72531940E-01
6.06206878E-01
2.94570417E-01
1.29042663E-01
9.62662731E-03
-7.57737836E-02
2.33056945E-01
1.86898007E-01
3.03424668E-01
2.43783966E-01
2.53685061E-01
1.47568983E-01
1.17334160E-01
6.01963147E-01
1.47663792E-01
1.98226331E+00
4.68401916E-01
7.86535378E-01
1.18522349E+00
8.72836165E-01
1.42437685E+00
8.08556663E-01
8.16497074E-01
9.09153491E-01
1.07326672E+00
7.17035362E-01
7.04615077E-01
7.99469867E-01
8.32902298E-01
9.89455170E-03
1.32014144E-01
-2.07443679E-02
2.41085260E-02
1.15294743E+00
-4.09178919E-01
4.01229450E-01
3.41081294E-01
9.50302177E-01
-4.36153944E-01
1.85600415E+00
9.73343052E-01
1.18247003E+00
5.52764036E-01
8.81672252E-01
6.48284462E-01
6.44815594E-01
6.21549177E-01
7.03806814E-01
5.18450896E-01
6.09541341E-01
5.75811478E-01
4.53616460E-01
-5.30784053E-04
-5.35676696E-01
6.88813346E-01
4.60564452E-01
4.03079663E-01
3.83282251E-01
2.72274253E-01
2.14973435E-02
2.40084977E-01
5.94482854E-03
1.22702660E-01
1.06420752E-01
1.64165886E-01
8.08019531E-02
7.17695004E-02
4.25213207E-01
4.96432689E-03
2.69896825E-01
2.52321065E-01
2.41101999E-01
1.72669306E-01
1.28520361E-01
1.67266215E-01
7.85506225E-02
1.22197999E+00
8.58499197E-01
5.28249285E-01
1.03748426E+00
6.38103967E-01
8.78524977E-01
8.27025372E-01
7.42208537E-01
5.83105222E-01
7.31162324E-01
8.18316755E-01
6.58382352E-01
7.81690510E-01
1.06479080E+00
9.39610360E-01
1.12871660E+00
1.72240626E+00
1.91430695E+00
5.28895990E-02
-1.35847452E-01
5.28227532E-01
1.09640487E+00
3.56440476E-01
8.11549777E-01
4.05642950E+00
1.36194800E+00
8.50172080E-03
5.64469132E-01
5.56107794E-01
2.88942559E-01
2.55600830E-01
2.54997788E-01
1.99292304E-01
1.03181256E-01
1.26580589E-01
1.00894390E+00
1.55459758E+00
9.95851875E-01
9.07542932E-01
9.93588424E-01
5.32486432E-01
6.05089006E-01
1.41413357E+00
6.84376570E-01
3.87716300E-01
1.19603707E+00
1.51860364E+00
1.01709174E+00
1.43172359E+00
8.48095367E-01
4.80832952E-01
1.26632214E-01
3.13827680E-01
2.55018858E-01
1.85557112E-01
1.44164611E-01
1.20546158E-01
7.07171443E-02
1.21034417E-01
9.54947919E-01
4.67398458E-02
6.07181914E-01
9.97522043E-01
8.74004329E-01
2.23343507E+00
-1.37818175E-01
4.78903371E-01
7.44684056E-01
8.95515157E-01
3.78502927E-01
4.74407416E-02
7.29824472E-02
2.16892324E-01
4.62404239E+00
9.94946090E-01
-1.13825209E-01
5.73631807E-02
5.45882660E-01
1.18210937E+00
6.20021906E-01
5.87928310E-01
1.70182392E-01
2.26699636E-01
2.55325353E-01
2.08202539E-01
3.72397826E-01
3.71651385E-01
2.09677103E-01
5.11809837E-01
6.08845223E-01
4.05226536E-01
1.98038894E+00
5.92877337E-02
7.46989409E-01
7.58206027E-01
9.46167635E-01
7.61297665E-01
1.20803489E+00
1.65376050E+00
5.19974902E-01
1.23542538E+00
-5.06180136E+00
2.13940678E-01
9.84200048E-02
-1.59417947E-01
4.65351248E-01
5.06938717E-01
4.36292541E-01
1.16642656E+00
5.36579174E-01
6.40907068E-01
-1.76659837E+00
-5.34836343E+00
6.43616934E-01
4.48468692E-02
1.63528552E-02
7.20402993E-03
2.07451358E-02
4.24148530E-01
2.12715702E+00
7.73414395E-03
4.44533215E-01
2.84366177E-01
2.41981053E-01
1.45207325E+00
7.42251724E-02
7.42460377E-02
1.15169841E+00
5.83861515E-01
6.74289751E-01
9.84182897E-01
2.20159402E-01
1.00000000E+00
2.65501036E+00
1.00000000E+00
1.37628728E+00
-4.60800670E-15
-2.92851979E-15
-3.48687742E-15
-3.35852074E-15
-3.14499501E-15
-4.26014168E-15
-4.01917669E-15
-3.69851544E-15
-3.41345988E-15
6.53851695E-01
-1.14158243E+01
-4.20326639E+00
1.32256189E+01
-1.80711699E-01
-2.54523761E+00
1.51362980E+00
4.92300042E-01
1.28948605E+00
-1.22754328E+00
1.00000000E+00
1.00000000E+00
1.00000000E+00
1.00000000E+00
1.00000000E+00
1.00000000E+00
-2.40399318E+00
1.65157821E+00
-4.69876579E-01
1.85002057E-01
5.93963335E-01
2.13561281E-01
4.57672607E-01
-1.92944877E-02
2.06705470E-01
-9.59879702E-02
2.84138089E-01
2.80543035E+00
4.32489639E-01
1.60800797E+00
3.46394693E+00
3.78976494E+00
3.70185060E+00
1.32434312E-01
1.47781060E-01
1.39856186E-01
1.01325154E-01
3.58021216E+00
4.97085403E-01
-1.27952790E+00
-2.85975261E-01
1.62502748E-01
4.31132486E-01
5.50395718E-01
5.36701989E-01
7.43681058E-01
1.57608141E-01
2.58205305E-01
7.32891822E-02
3.12100053E-01
2.66428475E-01
-1.67654868E+00
-8.00010162E-02
-3.06627531E+00
2.55598307E+00
1.32246775E+00
-2.37431412E-01
8.36458666E-01
-1.34671049E+00
8.15748724E-01
6.41469231E-01
1.52002497E-01
-6.16534388E-01
5.48021336E-01
4.33538717E-01
-6.17353315E-02
-2.89281633E-01
5.83819853E-02
-4.31156944E-01
1.80875210E-01
4.74109129E-02
-9.17275278E-02
5.42417637E+00
1.58393029E-01
3.45240010E+00
1.13938617E+00
6.22824824E+00
-2.37187502E+00
8.76044866E-01
2.95996868E-03
1.68342095E+00
2.96848673E-01
1.01372948E+00
8.72654397E-01
8.75096918E-01
2.92617512E-01
8.71176838E-01
3.75805715E-01
5.59506916E-01
6.81548293E-01
2.40736609E+00
4.30778338E+00
-2.99390499E-01
3.75377932E-01
3.85198541E-01
3.15576538E-01
2.09864834E-01
1.09090119E+00
8.34441005E-02
7.97896822E-01
1.96524458E-01
9.29727545E-02
-2.90977773E-01
7.72247301E-02
-1.23890518E-01
3.24254390E-01
1.30385364E+00
3.19984912E-01
2.33321142E-01
1.26933974E-01
2.27580690E-01
2.25190002E-01
-7.03258926E-02
1.07182562E-01
-2.44326768E-01
1.06658448E+00
2.24781107E+00
2.32417468E-01
1.63353726E+00
5.42708847E-01
6.18004126E-01
7.87607355E-01
1.22859075E+00
5.03676890E-01
2.29705333E-03
4.57758111E-01
-2.23089726E-01
7.19267150E-01
1.11187733E+00
5.05558760E-01
-1.71093786E+00
-2.47503904E+00
-6.13168945E-03
6.12955492E-01
1.43504975E-01
2.56417079E-01
2.78834487E-01
1.29176941E+00
-1.04961430E+01
-2.33296933E+00
2.46332141E+00
-2.09996997E-01
-4.17667492E-01
2.51840450E-01
2.12870668E-01
1.28029441E-01
1.01553667E-01
3.55702287E-01
-5.48282943E-02
5.45809979E-01
-1.23932230E+00
4.02226916E-01
6.72118315E-01
1.49206805E-01
1.74506263E+00
1.31046244E+00
-1.86446020E+00
7.33393540E-01
1.43268441E+00
6.58413508E-02
-1.29412928E+00
-1.15819601E+00
-2.98971451E+00
-1.01194448E+00
-3.22351674E-02
1.17361202E+00
-9.45772119E-02
2.22059097E-02
1.77876992E-01
8.30617855E-02
7.95885705E-02
2.28112111E-01
-5.07035688E-02
6.60930238E-01
3.74610926E+00
1.49254855E+00
-1.37186642E-01
1.67423943E-01
-5.05351070E+00
3.57908934E+00
1.19550239E+00
1.68820149E-01
-6.09932449E-01
2.76092904E+00
6.45131100E-02
3.37639835E-02
3.76697918E+00
-1.26727176E+01
5.83922961E-01
5.28341381E-01
3.84356474E+00
-9.00460201E-02
-2.11462019E+00
-1.75595684E-01
-2.61538244E-01
1.04118199E+00
4.01856325E-01
2.35885764E-01
2.04837166E-01
7.61573404E-01
4.11085313E-01
6.07064357E-02
5.66349507E-01
3.23037278E-01
1.21543836E+00
-4.53706129E+00
2.94473777E+00
4.46723593E-01
6.03985519E-01
7.30508356E-01
7.43887589E-01
-1.77316251E-01
-2.46403182E+00
2.32911705E+00
-5.24705468E-01
2.34368536E+01
-1.83553338E-01
-5.91028088E-04
5.10258346E+00
8.18422526E-01
4.76020056E-01
4.47937573E-01
-2.04615053E+00
7.26319337E-03
-1.42467363E-01
1.12298044E+01
2.46614380E+01
1.98398037E+00
-1.18277096E-01
-3.19800427E-02
1.12987288E-02
-7.98440868E-03
4.30211367E-01
-3.26185607E+00
2.33504092E-02
1.50565740E-01
1.14205510E+00
1.50546677E+00
-1.00092290E+00
-5.07042595E-02
2.42735445E-03
7.47024362E-03
2.18134016E+00
1.99264312E+00
6.48093777E-01
-8.19732725E-02
1.00000000E+00
-5.57249121E+00
1.00000000E+00
-2.85149416E+00
0.00000000E+00
0.00000000E+00
0.00000000E+00
-0.00000000E+00
0.00000000E+00
0.00000000E+00
-0.00000000E+00
-0.00000000E+00
-0.00000000E+00
-3.74055983E-01
4.73309389E+01
2.03891909E+01
-4.46856197E+01
5.29849857E+00
1.40993457E+01
-1.15216116E+00
2.66297901E+00
-4.40317946E-01
8.93887090E+00
1.00000000E+00
1.00000000E+00
1.00000000E+00
1.00000000E+00
1.00000000E+00
1.00000000E+00
1.28429062E+01
-2.26776618E+00
5.49061799E+00
2.89146456E+00
1.21236477E+00
2.49171790E+00
1.42188298E+00
3.04422766E+00
2.09282546E+00
2.77617678E+00
1.38692235E+00
-8.09396505E+00
7.19171473E-01
-3.70330416E+00
-1.06458772E+01
-1.19252660E+01
-1.16138986E+01
1.39301505E+00
1.32391960E+00
1.22339997E+00
1.17456582E+00
-1.20249110E+01
-7.14164610E-01
5.75813011E+00
1.88065070E+00
3.76280126E-02
-1.14194879E+00
-1.78650068E+00
-5.96516741E-01
-1.33426158E+00
7.01802831E-01
2.04384136E-01
7.46535769E-01
-3.01938262E-01
-2.89999083E-01
6.82697323E+00
7.69655614E-01
1.57751273E+01
-5.23497585E+00
-6.77659092E-01
5.07198897E+00
9.72221339E-01
8.99512827E+00
7.88907589E-01
1.29468203E+00
2.97772848E+00
5.68988919E+00
1.17879027E+00
1.44520947E+00
3.15232622E+00
3.89876581E+00
-1.22575580E-01
1.67062617E+00
-5.71579297E-01
-3.95547791E-02
4.55346265E+00
-1.63462019E+01
1.06467089E+00
-8.15919975E+00
4.33715114E-01
-1.86436393E+01
1.34067849E+01
1.23916664E+00
4.40495146E+00
-2.53624809E+00
2.47943998E+00
-3.50129905E-01
2.23484085E-02
-7.11561343E-02
1.82719688E+00
-4.45214296E-01
1.24811895E+00
6.20356369E-01
-1.69104889E-01
-6.57902737E+00
-1.37682557E+01
3.38863646E+00
6.93298353E-01
4.51931798E-01
5.68257700E-01
4.42779957E-01
-2.90016830E+00
6.68035810E-01
-2.15770826E+00
-7.89822408E-02
1.43161364E-01
1.40764149E+00
9.05751080E-02
6.06322613E-01
7.01037825E-01
-3.54366726E+00
1.33053626E-01
3.04229818E-01
5.53014845E-01
2.26486149E-02
-1.35586009E-01
8.16379925E-01
3.26708873E-04
5.22800457E+00
2.89999623E-01
-4.16968088E+00
3.23696764E+00
-2.08147036E+00
1.79599170E+00
1.39808204E+00
6.18176658E-01
-1.18039404E+00
1.35266409E+00
3.04772404E+00
1.20649797E+00
3.52680117E+00
2.00877897E+00
4.68968244E-01
2.83121549E+00
1.11024768E+01
1.39062232E+01
2.14138758E-01
-2.18161514E+00
1.57930910E+00
3.39129419E+00
5.68463981E-01
-5.00434650E-01
4.38147970E+01
1.14566499E+01
-6.69819039E+00
2.68034995E+00
3.21651135E+00
3.90307408E-01
3.72341803E-01
6.01881762E-01
4.66319226E-01
-5.86719032E-01
6.22198876E-01
2.27424929E+00
9.18772863E+00
2.61766543E+00
1.55073495E+00
3.30048191E+00
-2.78033335E+00
-1.32202704E+00
1.03714183E+01
5.50459718E-01
-2.46718967E+00
4.28378919E+00
9.20313288E+00
6.96008837E+00
1.35113171E+01
5.92981874E+00
1.88256112E+00
-2.73376981E+00
1.42961060E+00
8.91075660E-01
2.06539591E-01
3.11100633E-01
2.32444369E-01
-3.59293902E-01
5.90231319E-01
1.75821916E+00
-1.00601253E+01
-1.81168472E+00
4.09760382E+00
2.80441784E+00
2.21417411E+01
-1.02925984E+01
-1.47888155E+00
2.31797351E+00
5.00847450E+00
-6.13040626E+00
7.98163674E-04
1.80129283E-01
-9.48212534E+00
5.18796696E+01
2.11788216E+00
-1.86825696E+00
-1.02867318E+01
2.28327213E+00
1.01889420E+01
2.79368958E+00
2.90871409E+00
-2.20943276E+00
-2.51837339E-01
3.08435298E-01
2.17396908E-01
-6.90849626E-01
2.63915889E-01
6.16672535E-01
3.62804686E-01
1.38968705E+00
-1.80831333E+00
1.97863941E+01
-7.82390838E+00
1.56733087E+00
1.17954429E+00
1.53535975E+00
8.08862878E-01
4.99288461E+00
1.29037783E+01
-4.42269336E+00
6.04419228E+00
-8.29215747E+01
1.29991452E+00
3.68923177E-01
-1.45354731E+01
-4.99257423E-01
5.91410070E-01
4.04477722E-01
9.94335041E+00
1.98269732E+00
2.78112581E+00
-3.72734311E+01
-8.73366657E+01
-3.01832409E+00
4.90509830E-01
1.48400788E-01
-3.98289556E-03
9.92357111E-02
4.07584550E-01
1.68502146E+01
-3.49302860E-02
1.24766729E+00
-2.05888353E+00
-3.20992611E+00
8.15378336E+00
4.15538728E-01
2.70458329E-01
4.27778790E+00
-3.78053130E+00
-2.92751863E+00
1.90239545E+00
1.04560122E+00
