# vtk DataFile Version 1.0
ECM-CELL DIFFUSION-MECHANICS
ASCII

DATASET UNSTRUCTURED_GRID
POINTS      258 float
1.50000000E+01 3.00000000E+01 0.00000000E+00
-5.00000000E+00 3.00000000E+01 0.00000000E+00
-5.00000000E+00 0.00000000E+00 0.00000000E+00
-2.50000000E+01 0.00000000E+00 0.00000000E+00
-2.69134178E+01 -9.61939812E+00 0.00000000E+00
-2.85355339E+01 -8.53553391E+00 0.00000000E+00
-2.96193981E+01 -6.91341734E+00 0.00000000E+00
-3.00000000E+01 -5.00000000E+00 0.00000000E+00
-2.96193981E+01 -3.08658290E+00 0.00000000E+00
-2.85355339E+01 -1.46446609E+00 0.00000000E+00
-2.69134178E+01 -3.80602330E-01 0.00000000E+00
-2.50000000E+01 -1.00000000E+01 0.00000000E+00
5.00000000E+00 -1.00000000E+01 0.00000000E+00
5.00000000E+00 2.00000000E+01 0.00000000E+00
1.30000000E+01 3.00000000E+01 0.00000000E+00
1.10000000E+01 3.00000000E+01 0.00000000E+00
9.00000000E+00 3.00000000E+01 0.00000000E+00
7.00000000E+00 3.00000000E+01 0.00000000E+00
5.00000000E+00 3.00000000E+01 0.00000000E+00
3.00000000E+00 3.00000000E+01 0.00000000E+00
1.00000000E+00 3.00000000E+01 0.00000000E+00
-1.00000000E+00 3.00000000E+01 0.00000000E+00
-3.00000000E+00 3.00000000E+01 0.00000000E+00
-5.00000000E+00 2.80000000E+01 0.00000000E+00
-5.00000000E+00 2.60000000E+01 0.00000000E+00
-5.00000000E+00 2.40000000E+01 0.00000000E+00
-5.00000000E+00 2.20000000E+01 0.00000000E+00
-5.00000000E+00 2.00000000E+01 0.00000000E+00
-5.00000000E+00 1.80000000E+01 0.00000000E+00
-5.00000000E+00 1.60000000E+01 0.00000000E+00
-5.00000000E+00 1.40000000E+01 0.00000000E+00
-5.00000000E+00 1.20000000E+01 0.00000000E+00
-5.00000000E+00 1.00000000E+01 0.00000000E+00
-5.00000000E+00 8.00000000E+00 0.00000000E+00
-5.00000000E+00 6.00000000E+00 0.00000000E+00
-5.00000000E+00 4.00000000E+00 0.00000000E+00
-5.00000000E+00 2.00000000E+00 0.00000000E+00
-7.00000000E+00 0.00000000E+00 0.00000000E+00
-9.00000000E+00 0.00000000E+00 0.00000000E+00
-1.10000000E+01 0.00000000E+00 0.00000000E+00
-1.30000000E+01 0.00000000E+00 0.00000000E+00
-1.50000000E+01 0.00000000E+00 0.00000000E+00
-1.70000000E+01 0.00000000E+00 0.00000000E+00
-1.90000000E+01 0.00000000E+00 0.00000000E+00
-2.10000000E+01 0.00000000E+00 0.00000000E+00
-2.30000000E+01 0.00000000E+00 0.00000000E+00
3.00000000E+00 -1.00000000E+01 0.00000000E+00
1.00000000E+00 -1.00000000E+01 0.00000000E+00
-1.00000000E+00 -1.00000000E+01 0.00000000E+00
-3.00000000E+00 -1.00000000E+01 0.00000000E+00
-5.00000000E+00 -1.00000000E+01 0.00000000E+00
-7.00000000E+00 -1.00000000E+01 0.00000000E+00
-9.00000000E+00 -1.00000000E+01 0.00000000E+00
-1.10000000E+01 -1.00000000E+01 0.00000000E+00
-1.30000000E+01 -1.00000000E+01 0.00000000E+00
-1.50000000E+01 -1.00000000E+01 0.00000000E+00
-1.70000000E+01 -1.00000000E+01 0.00000000E+00
-1.90000000E+01 -1.00000000E+01 0.00000000E+00
-2.10000000E+01 -1.00000000E+01 0.00000000E+00
-2.30000000E+01 -1.00000000E+01 0.00000000E+00
5.00000000E+00 1.80000000E+01 0.00000000E+00
5.00000000E+00 1.60000000E+01 0.00000000E+00
5.00000000E+00 1.40000000E+01 0.00000000E+00
5.00000000E+00 1.20000000E+01 0.00000000E+00
5.00000000E+00 1.00000000E+01 0.00000000E+00
5.00000000E+00 8.00000000E+00 0.00000000E+00
5.00000000E+00 6.00000000E+00 0.00000000E+00
5.00000000E+00 4.00000000E+00 0.00000000E+00
5.00000000E+00 2.00000000E+00 0.00000000E+00
5.00000000E+00 0.00000000E+00 0.00000000E+00
5.00000000E+00 -2.00000000E+00 0.00000000E+00
5.00000000E+00 -4.00000000E+00 0.00000000E+00
5.00000000E+00 -6.00000000E+00 0.00000000E+00
5.00000000E+00 -8.00000000E+00 0.00000000E+00
6.42857122E+00 2.14285717E+01 0.00000000E+00
7.85714293E+00 2.28571434E+01 0.00000000E+00
9.28571415E+00 2.42857151E+01 0.00000000E+00
1.07142859E+01 2.57142849E+01 0.00000000E+00
1.21428576E+01 2.71428566E+01 0.00000000E+00
1.35714283E+01 2.85714283E+01 0.00000000E+00
-2.55692158E+01 -7.47994947E+00 0.00000000E+00
-2.68123989E+01 -6.65812349E+00 0.00000000E+00
-2.78370075E+01 -5.65078545E+00 0.00000000E+00
-2.49931679E+01 -2.99975061E+00 0.00000000E+00
-6.07402325E+00 -2.51799893E+00 0.00000000E+00
-3.41205382E+00 6.06536293E+00 0.00000000E+00
-7.90601015E+00 -2.16468501E+00 0.00000000E+00
6.93360615E+00 2.85683231E+01 0.00000000E+00
5.03122282E+00 2.85983677E+01 0.00000000E+00
3.07519960E+00 2.83579216E+01 0.00000000E+00
1.02007830E+00 2.82704353E+01 0.00000000E+00
-1.00747931E+00 2.81540108E+01 0.00000000E+00
-2.98253322E+00 2.20530071E+01 0.00000000E+00
-3.14535069E+00 1.99964409E+01 0.00000000E+00
-3.38007402E+00 1.80213890E+01 0.00000000E+00
-3.24730754E+00 1.60810070E+01 0.00000000E+00
-3.22061014E+00 1.40090933E+01 0.00000000E+00
-3.27037716E+00 1.19557343E+01 0.00000000E+00
-3.32515502E+00 9.95609379E+00 0.00000000E+00
-3.37583542E+00 7.99501371E+00 0.00000000E+00
-3.38906217E+00 4.20707273E+00 0.00000000E+00
-3.21241689E+00 2.45526028E+00 0.00000000E+00
-2.81301451E+00 1.00452256E+00 0.00000000E+00
-9.85906696E+00 -1.94350755E+00 0.00000000E+00
-1.18253517E+01 -1.81189597E+00 0.00000000E+00
-1.37737036E+01 -1.72045147E+00 0.00000000E+00
-1.56994905E+01 -1.64893782E+00 0.00000000E+00
-1.76126289E+01 -1.59551537E+00 0.00000000E+00
-1.95252953E+01 -1.56757510E+00 0.00000000E+00
-2.14428196E+01 -1.57937253E+00 0.00000000E+00
-2.40465412E+01 -7.98486996E+00 0.00000000E+00
-2.32975655E+01 -1.60528278E+00 0.00000000E+00
-8.58305335E-01 -8.21509266E+00 0.00000000E+00
-2.85219836E+00 -8.24649334E+00 0.00000000E+00
-4.86234474E+00 -8.28040028E+00 0.00000000E+00
-6.82275486E+00 -8.35858631E+00 0.00000000E+00
-8.72553921E+00 -8.46272755E+00 0.00000000E+00
-1.06668940E+01 -8.49340248E+00 0.00000000E+00
-1.26085234E+01 -8.47250462E+00 0.00000000E+00
-1.45571985E+01 -8.43932819E+00 0.00000000E+00
-1.65147133E+01 -8.41329861E+00 0.00000000E+00
-1.84622021E+01 -8.38815498E+00 0.00000000E+00
-2.03904629E+01 -8.34011364E+00 0.00000000E+00
-2.22757702E+01 -8.22864628E+00 0.00000000E+00
3.32341838E+00 1.79214497E+01 0.00000000E+00
3.49274993E+00 1.58118629E+01 0.00000000E+00
3.45036292E+00 1.38697481E+01 0.00000000E+00
3.40310287E+00 1.19041443E+01 0.00000000E+00
3.36840963E+00 9.92752457E+00 0.00000000E+00
3.33398676E+00 7.94917822E+00 0.00000000E+00
3.27319622E+00 5.98151016E+00 0.00000000E+00
3.14357090E+00 4.00265217E+00 0.00000000E+00
2.93195248E+00 2.00336671E+00 0.00000000E+00
2.85718203E+00 -7.79486522E-02 0.00000000E+00
2.96486330E+00 -2.16540527E+00 0.00000000E+00
3.04931951E+00 -4.18990898E+00 0.00000000E+00
3.07869506E+00 -6.14942598E+00 0.00000000E+00
3.06127834E+00 -8.08621216E+00 0.00000000E+00
8.87478542E+00 2.87956104E+01 0.00000000E+00
1.06500645E+01 2.90019722E+01 0.00000000E+00
9.73117542E+00 2.65182457E+01 0.00000000E+00
4.64431381E+00 2.23340874E+01 0.00000000E+00
8.02427673E+00 2.53785686E+01 0.00000000E+00
6.40424109E+00 2.39808598E+01 0.00000000E+00
-2.30793724E+01 -6.28166199E+00 0.00000000E+00
-2.65148945E+01 -3.90364408E+00 0.00000000E+00
-3.43422222E+00 -1.27146482E+00 0.00000000E+00
1.04067838E+00 2.66475811E+01 0.00000000E+00
1.10761571E+00 -8.16181087E+00 0.00000000E+00
-7.36092031E-01 -6.43063927E+00 0.00000000E+00
-4.75875711E+00 -6.53175259E+00 0.00000000E+00
-6.72676086E+00 -6.65011883E+00 0.00000000E+00
-8.50626945E+00 -6.96918011E+00 0.00000000E+00
-1.03056269E+01 -7.00035810E+00 0.00000000E+00
-1.21337996E+01 -6.91552496E+00 0.00000000E+00
-1.40198870E+01 -6.83708525E+00 0.00000000E+00
-1.59333124E+01 -6.77759314E+00 0.00000000E+00
-1.20785129E+00 1.97240963E+01 0.00000000E+00
-1.32478476E+00 1.64232349E+01 0.00000000E+00
1.96661806E+00 1.56013527E+01 0.00000000E+00
1.83737338E+00 1.38039751E+01 0.00000000E+00
1.66680229E+00 7.95078230E+00 0.00000000E+00
1.58930695E+00 6.05578279E+00 0.00000000E+00
1.41368437E+00 4.18972206E+00 0.00000000E+00
-2.88116503E+00 2.41189423E+01 0.00000000E+00
-1.05743062E+00 2.20182400E+01 0.00000000E+00
-2.06459260E+00 1.80287819E+01 0.00000000E+00
1.76209581E+00 1.18621569E+01 0.00000000E+00
1.71383548E+00 9.90428638E+00 0.00000000E+00
-1.96961384E+01 -6.65574455E+00 0.00000000E+00
1.10382271E+00 -2.44856596E+00 0.00000000E+00
-2.71728683E+00 -6.50229883E+00 0.00000000E+00
-6.94966459E+00 -4.68074226E+00 0.00000000E+00
-8.87774658E+00 -3.94481039E+00 0.00000000E+00
-1.07458334E+01 -3.67898369E+00 0.00000000E+00
-1.26495609E+01 -3.53031301E+00 0.00000000E+00
-1.45555058E+01 -3.42598987E+00 0.00000000E+00
-1.64351330E+01 -3.33984756E+00 0.00000000E+00
-1.82789097E+01 -3.26375914E+00 0.00000000E+00
-1.78273373E+01 -6.72471857E+00 0.00000000E+00
-2.00785789E+01 -3.19971037E+00 0.00000000E+00
-1.49681842E+00 1.40206604E+01 0.00000000E+00
-1.58211720E+00 1.19191847E+01 0.00000000E+00
-1.64738953E+00 9.92495728E+00 0.00000000E+00
-1.70833540E+00 7.99023056E+00 0.00000000E+00
-1.75975442E+00 6.13986826E+00 0.00000000E+00
-1.75903368E+00 4.42714834E+00 0.00000000E+00
-1.57233489E+00 2.89093947E+00 0.00000000E+00
8.35785091E-01 2.16724944E+00 0.00000000E+00
6.82180047E-01 -2.41043478E-01 0.00000000E+00
1.19283760E+00 -4.42227745E+00 0.00000000E+00
5.08529997E+00 2.73792095E+01 0.00000000E+00
3.36510825E+00 2.64843388E+01 0.00000000E+00
2.03854513E+00 1.69918709E+01 0.00000000E+00
-2.18747597E+01 -3.21142745E+00 0.00000000E+00
-2.14750767E+01 -6.53344297E+00 0.00000000E+00
3.87977886E+00 2.02254429E+01 0.00000000E+00
6.80135918E+00 2.67542229E+01 0.00000000E+00
3.63350844E+00 2.38850384E+01 0.00000000E+00
-2.38274765E+01 -3.46659899E+00 0.00000000E+00
1.18041360E+00 -6.30371428E+00 0.00000000E+00
-9.38736618E-01 2.63029137E+01 0.00000000E+00
1.22929611E+01 2.88663254E+01 0.00000000E+00
-2.54329395E+01 -4.97643757E+00 0.00000000E+00
-2.34656639E+01 -4.58569384E+00 0.00000000E+00
2.50105619E+00 2.18994751E+01 0.00000000E+00
1.02533674E+00 1.74530888E+01 0.00000000E+00
-2.03710103E+00 -2.63990819E-01 0.00000000E+00
-2.58995533E+00 -4.80094004E+00 0.00000000E+00
-8.48027420E+00 -5.76261616E+00 0.00000000E+00
-9.76420498E+00 -5.45034361E+00 0.00000000E+00
-1.15105400E+01 -5.29605007E+00 0.00000000E+00
-1.33758335E+01 -5.19502783E+00 0.00000000E+00
-1.39613941E-01 4.48769760E+00 0.00000000E+00
-4.65231037E+00 -4.77523041E+00 0.00000000E+00
-6.82374060E-01 -2.91642618E+00 0.00000000E+00
-1.52690411E+01 -5.11363983E+00 0.00000000E+00
-6.56300783E-02 6.15421581E+00 0.00000000E+00
-1.08489251E+00 -1.39932156E+00 0.00000000E+00
-1.06679821E+00 1.62087166E+00 0.00000000E+00
-1.24161234E-02 7.98827744E+00 0.00000000E+00
8.48017856E-02 1.18839493E+01 0.00000000E+00
3.37320901E-02 9.92000008E+00 0.00000000E+00
1.64119601E-01 1.38965883E+01 0.00000000E+00
4.08286780E-01 1.58328867E+01 0.00000000E+00
6.25479996E-01 2.03010693E+01 0.00000000E+00
-1.50913820E-01 1.81863232E+01 0.00000000E+00
-1.71419277E+01 -5.04282713E+00 0.00000000E+00
-1.89704075E+01 -4.97220182E+00 0.00000000E+00
-5.94378114E-01 2.42636070E+01 0.00000000E+00
1.91058230E+00 1.87361507E+01 0.00000000E+00
-2.22677994E+01 -4.73615551E+00 0.00000000E+00
5.08411074E+00 2.51987476E+01 0.00000000E+00
-6.61113381E-01 -4.65103960E+00 0.00000000E+00
-2.35311747E+00 -1.99394405E+00 0.00000000E+00
7.17164218E-01 2.19067993E+01 0.00000000E+00
2.42589617E+00 2.30299225E+01 0.00000000E+00
-4.26703167E+00 -2.97138119E+00 0.00000000E+00
-2.47106886E+00 -3.21366310E+00 0.00000000E+00
-2.95505738E+00 2.61031113E+01 0.00000000E+00
-2.44062843E+01 -5.78745651E+00 0.00000000E+00
1.11900005E+01 2.76029587E+01 0.00000000E+00
-3.00564528E+00 2.80624599E+01 0.00000000E+00
-2.86195679E+01 -4.77531338E+00 0.00000000E+00
-2.77284527E+01 -2.32228160E+00 0.00000000E+00
-2.65301876E+01 -2.03538251E+00 0.00000000E+00
-2.49753170E+01 -1.63643456E+00 0.00000000E+00
-2.81240730E+01 -3.52081490E+00 0.00000000E+00
8.99391651E+00 2.75412903E+01 0.00000000E+00
2.33917475E+00 2.03422546E+01 0.00000000E+00
1.04003115E+01 2.80933590E+01 0.00000000E+00
-8.09095621E-01 4.35396373E-01 0.00000000E+00
2.31196761E+00 2.47869625E+01 0.00000000E+00
-2.07040234E+01 -4.87518072E+00 0.00000000E+00
8.12728226E-01 1.91052380E+01 0.00000000E+00
9.86865878E-01 2.53211288E+01 0.00000000E+00
1.19369018E+00 2.34800301E+01 0.00000000E+00
-2.93027848E-01 3.20813227E+00 0.00000000E+00

CELLS      217     1085
   4         142         140        248        197
   4          21          91         90         20
   4          49         113        114         50
   4          64         128        129         65
   4          37          86         84          2
   4         110          11         59        123
   4           5           4         80         81
   4         109         194        180        108
   4           7           6         82        243
   4         144         240         80        110
   4         245         145         83        246
   4          87          17         18         88
   4         138          87        197        248
   4          89          19         20         90
   4         192         191         88         89
   4          22         242         91         21
   4           1          23        242         22
   4          25          26         92        164
   4          89          90        147        192
   4         201         239        164        229
   4          93          92         26         27
   4          94          93         27         28
   4          95          94         28         29
   4          96          95         29         30
   4          97          96         30         31
   4          98          97         31         32
   4          85          99         33         34
   4         100          85         34         35
   4         101         100         35         36
   4         102         101         36          2
   4         149         233        208        171
   4          38         103         86         37
   4          39         104        103         38
   4          40         105        104         39
   4          41         106        105         40
   4          42         107        106         41
   4          43         108        107         42
   4          44         109        108         43
   4         122          58         57        121
   4          82          81        203        145
   4          46          12         73        137
   4          46         137        148         47
   4         170         190        135        134
   4          48         112        113         49
   4          50         114        115         51
   4         114         150        151        115
   4         152         116        115        151
   4         152         153        117        116
   4         153         154        118        117
   4         154         155        119        118
   4         155         156        120        119
   4         249         225        254        230
   4         230         206        193        124
   4         166         158        226        157
   4         160         159        224        223
   4         159         160        126        125
   4          63         127        128         64
   4          65         129        130         66
   4         130         129        161        162
   4         162         163        131        130
   4          69         133        134         70
   4          70         134        135         71
   4          71         135        136         72
   4          72         136        137         73
   4          17          87        138         16
   4          16         138        139         15
   4          14         202         79          0
   4         202          14         15        139
   4           9         244        245         10
   4          80           4         11        110
   4          81          82          6          5
   4         247         243         82        145
   4          45         111        109         44
   4          10         245        246          3
   4          51         115        116         52
   4          88          18         19         89
   4         142          76         77        140
   4         142         143         75         76
   4         198         232        192        252
   4         165         229        164         92
   4          23          24        239        242
   4          93         157        165         92
   4         206         226        158        224
   4          60         124        125         61
   4          61         125        126         62
   4          62         126        127         63
   4          99          98         32         33
   4         160         167        127        126
   4         221         182        183        222
   4          66         130        131         67
   4          67         131        132         68
   4         146           2         84        237
   4          68         132        133         69
   4          52         116        117         53
   4          53         117        118         54
   4          54         118        119         55
   4          55         119        120         56
   4          56         120        121         57
   4         123         122        169        195
   4         111          45          3        246
   4         111         199        194        109
   4         123          59         58        122
   4         203         199         83        145
   4         112          48         47        148
   4         234         218        207        146
   4         171         113        112        149
   4         214         208        238        237
   4         214         172        151        150
   4         209         210        153        152
   4         153         210        211        154
   4         154         211        212        155
   4         216         176        177        227
   4         227         177        178        228
   4         156         179        121        120
   4         108         180        178        107
   4         144         231        204        240
   4         124          60         13        196
   4         141         196         13         74
   4         181         223        224        158
   4         223         181        182        221
   4         222         183        184        220
   4          99         184        183         98
   4         184         185        217        220
   4         185         186        213        217
   4         186         187        257        213
   4         163         188        132        131
   4         219         188        257        187
   4         234         238        215        218
   4         215         233        190        170
   4         190         200        136        135
   4         200         148        137        136
   4          77          78        241        140
   4         241         202        139        250
   4          74          75        143        141
   4          88         191        197         87
   4         110         123        195        144
   4         102           2        146        207
   4         172         214        237         84
   4          90          91        201        147
   4         226         206        230        254
   4         112         148        200        149
   4         150         114        113        171
   4          86         173        172         84
   4         103         174        173         86
   4         104         175        174        103
   4         105         176        175        104
   4         106         177        176        105
   4         107         178        177        106
   4         158         166         94         95
   4          95          96        181        158
   4         181          96         97        182
   4         125         124        193        159
   4         129         128        168        161
   4          85         185        184         99
   4         100         186        185         85
   4         101         187        186        100
   4          24          25        164        239
   4         255         229        256        252
   4         157          93         94        166
   4          98         183        182         97
   4         128         127        167        168
   4         122         121        179        169
   4         204         231        194        199
   4         134         133        189        170
   4         173         210        209        172
   4         174         211        210        173
   4         175         212        211        174
   4         176         216        212        175
   4         179         227        228        169
   4         227         179        156        216
   4         231         253        180        194
   4         187         101        102        219
   4         251         207        218        189
   4         132         188        189        133
   4         188         163        213        257
   4         200         190        233        149
   4         232         197        191        192
   4         252         256        236        198
   4         230         124        196        249
   4         111         246         83        199
   4         195         253        231        144
   4         205         141        198        236
   4         198         141        143        232
   4         199         203        240        204
   4         239         201         91        242
   4          78          79        202        241
   4         240         203         81         80
   4         236         256        235        205
   4         196         141        205        249
   4         159         193        206        224
   4         219         102        207        251
   4         171         208        214        150
   4         209         152        151        172
   4         217         213        163        162
   4         215         238        208        233
   4         216         156        155        212
   4         220         217        162        161
   4         188         219        251        189
   4         222         220        161        168
   4         168         167        221        222
   4         223         221        167        160
   4         225         235        165        157
   4         228         178        180        253
   4         232         143        142        197
   4         201         229        255        147
   4         146         237        238        234
   4         205         235        225        249
   4           8           7        243        247
   4         247         244          9          8
   4         145         245        244        247
   4         250         248        140        241
   4         138         248        250        139
   4         252         192        147        255
   4         253         195        169        228
   4         157         226        254        225
   4         256         229        165        235
   4         170         189        218        215

CELL_TYPES      217
    9     9     9     9     9     9     9     9     9     9     9     9     9     9     9     9     9     9     9     9     9     9     9     9     9     9     9     9     9     9     9     9     9     9     9     9     9     9     9     9     9     9     9     9     9     9     9     9     9     9     9     9     9     9     9     9     9     9     9     9     9     9     9     9     9     9     9     9     9     9     9     9     9     9     9     9     9     9     9     9     9     9     9     9     9     9     9     9     9     9     9     9     9     9     9     9     9     9     9     9     9     9     9     9     9     9     9     9     9     9     9     9     9     9     9     9     9     9     9     9     9     9     9     9     9     9     9     9     9     9     9     9     9     9     9     9     9     9     9     9     9     9     9     9     9     9     9     9     9     9     9     9     9     9     9     9     9     9     9     9     9     9     9     9     9     9     9     9     9     9     9     9     9     9     9     9     9     9     9     9     9     9     9     9     9     9     9     9     9     9     9     9     9     9     9     9     9     9     9     9     9     9     9     9     9     9     9     9     9     9     9     9     9     9     9     9     9 
POINT_DATA      258
SCALARS Ux float
LOOKUP_TABLE default
1.00000000E+00
9.19096034E-01
4.72750914E-01
0.00000000E+00
-1.12757026E-16
-6.59194921E-17
-9.02056208E-17
-1.56125113E-17
-1.56233533E-16
-1.40512602E-16
6.85215773E-17
-4.74880552E-17
4.91132517E-01
1.00000000E+00
9.96992231E-01
9.83036390E-01
9.79435956E-01
9.70196062E-01
9.57021266E-01
9.46876315E-01
9.26682164E-01
9.25320896E-01
9.21228001E-01
9.17813240E-01
9.16218587E-01
9.06990813E-01
9.21134148E-01
8.23381735E-01
8.14325182E-01
7.87460586E-01
7.55033966E-01
7.19622472E-01
6.84351385E-01
6.54141282E-01
6.20447359E-01
5.87791885E-01
5.56117545E-01
3.92275090E-01
3.44152298E-01
3.04026093E-01
2.66821734E-01
2.30648702E-01
1.94604963E-01
1.58743923E-01
1.24375645E-01
9.78726532E-02
4.83180172E-01
4.91541723E-01
4.31421402E-01
4.15771205E-01
3.94628071E-01
3.66353566E-01
3.31249525E-01
2.99180692E-01
2.68908807E-01
2.40147789E-01
2.08818894E-01
2.28592076E-01
7.94717994E-02
9.86676350E-02
8.39745034E-01
8.08807416E-01
7.65636013E-01
7.26253480E-01
6.91889250E-01
6.61054535E-01
6.28039977E-01
5.93426201E-01
5.61666541E-01
5.34961558E-01
5.12991046E-01
4.93379829E-01
4.82291703E-01
4.70275430E-01
1.00000000E+00
1.00000000E+00
1.00000000E+00
1.00000000E+00
1.00000000E+00
1.00000000E+00
4.32830968E-02
1.00599924E-02
1.68560991E-02
6.22146498E-02
3.61329055E-01
6.22138653E-01
3.55500533E-01
9.66992586E-01
9.58444986E-01
9.43818773E-01
9.35372980E-01
9.25796613E-01
8.48643643E-01
8.45140138E-01
8.11921522E-01
7.85907556E-01
7.61454308E-01
7.13506984E-01
6.86670967E-01
6.53769598E-01
5.91044445E-01
5.62098265E-01
5.27982235E-01
3.21637155E-01
2.86366781E-01
2.51875088E-01
2.17783418E-01
1.83229308E-01
1.48812179E-01
1.14692701E-01
6.68728806E-02
7.89248984E-02
4.44954904E-01
4.20999706E-01
3.91687432E-01
3.85621133E-01
3.25244050E-01
3.04164838E-01
2.77106831E-01
2.40819061E-01
2.28976268E-01
1.17327603E-01
1.20999589E-01
8.87687141E-02
8.54227549E-01
8.03004691E-01
7.65520242E-01
7.16704615E-01
6.92946576E-01
6.60124719E-01
6.30712264E-01
5.94383571E-01
5.54977233E-01
5.32755076E-01
5.08942424E-01
4.87067763E-01
4.67211138E-01
4.93906073E-01
9.81071145E-01
9.87829119E-01
9.96474867E-01
9.55491358E-01
9.89814149E-01
9.77664228E-01
7.73982154E-02
2.42273522E-02
4.41895089E-01
9.25787442E-01
4.45044099E-01
4.43967624E-01
4.09708790E-01
3.27404991E-01
3.33459381E-01
3.05448441E-01
2.80382753E-01
2.60018225E-01
2.12499608E-01
8.40532022E-01
7.93009853E-01
7.93395846E-01
7.64102631E-01
6.60034448E-01
6.23370681E-01
5.88381169E-01
9.27011754E-01
8.87365718E-01
8.20181902E-01
7.25890575E-01
6.97489939E-01
1.37798092E-01
4.92063063E-01
4.25424159E-01
3.74761247E-01
3.33989377E-01
3.04277185E-01
2.69243353E-01
2.39753385E-01
2.04256280E-01
1.70997843E-01
1.85142950E-01
1.37644525E-01
7.58577879E-01
7.38182221E-01
6.87904460E-01
6.49506981E-01
6.26232378E-01
5.97326195E-01
5.67213610E-01
5.65007042E-01
5.39557307E-01
4.76384062E-01
9.52930927E-01
9.49314935E-01
8.04167050E-01
1.04319075E-01
1.03537371E-01
9.04041981E-01
9.76375162E-01
9.48094937E-01
6.95787268E-02
4.67043576E-01
9.17200994E-01
9.93608251E-01
5.59549770E-02
7.69863604E-02
9.05263911E-01
8.35289099E-01
5.45614040E-01
4.26827611E-01
3.33672037E-01
3.25400359E-01
2.93357516E-01
2.43563412E-01
6.08916528E-01
3.95586005E-01
4.78163870E-01
2.23082748E-01
6.26416099E-01
4.49092305E-01
5.57407716E-01
6.62389613E-01
7.33516040E-01
6.90196097E-01
7.53192601E-01
8.07335469E-01
8.68615971E-01
8.44366064E-01
1.95499798E-01
1.54289806E-01
9.06188122E-01
8.59895539E-01
9.60699849E-02
9.61188263E-01
4.65664885E-01
4.60341548E-01
8.90457801E-01
9.08805881E-01
4.36007123E-01
4.53291813E-01
9.14853170E-01
6.26401547E-02
9.95252443E-01
9.17984542E-01
3.19820179E-03
1.93578354E-03
2.72388414E-02
6.07347431E-02
1.03770572E-02
9.81374585E-01
8.80985301E-01
9.93659112E-01
5.28244534E-01
9.32401119E-01
1.25202336E-01
8.40893027E-01
9.23848179E-01
9.10990360E-01
5.73302241E-01
