# vtk DataFile Version 1.0
ECM-CELL DIFFUSION-MECHANICS
ASCII

DATASET UNSTRUCTURED_GRID
POINTS      889 float
1.50000000E+01 3.00000000E+01 0.00000000E+00
-5.00000000E+00 3.00000000E+01 0.00000000E+00
-5.00000000E+00 0.00000000E+00 0.00000000E+00
-2.50000000E+01 0.00000000E+00 0.00000000E+00
-2.69134178E+01 -9.61939812E+00 0.00000000E+00
-2.85355339E+01 -8.53553391E+00 0.00000000E+00
-2.96193981E+01 -6.91341734E+00 0.00000000E+00
-3.00000000E+01 -5.00000000E+00 0.00000000E+00
-2.96193981E+01 -3.08658290E+00 0.00000000E+00
-2.85355339E+01 -1.46446609E+00 0.00000000E+00
-2.69134178E+01 -3.80602330E-01 0.00000000E+00
-2.50000000E+01 -1.00000000E+01 0.00000000E+00
5.00000000E+00 -1.00000000E+01 0.00000000E+00
5.00000000E+00 2.00000000E+01 0.00000000E+00
1.30000000E+01 3.00000000E+01 0.00000000E+00
1.10000000E+01 3.00000000E+01 0.00000000E+00
9.00000000E+00 3.00000000E+01 0.00000000E+00
7.00000000E+00 3.00000000E+01 0.00000000E+00
5.00000000E+00 3.00000000E+01 0.00000000E+00
3.00000000E+00 3.00000000E+01 0.00000000E+00
1.00000000E+00 3.00000000E+01 0.00000000E+00
-1.00000000E+00 3.00000000E+01 0.00000000E+00
-3.00000000E+00 3.00000000E+01 0.00000000E+00
-5.00000000E+00 2.80000000E+01 0.00000000E+00
-5.00000000E+00 2.60000000E+01 0.00000000E+00
-5.00000000E+00 2.40000000E+01 0.00000000E+00
-5.00000000E+00 2.20000000E+01 0.00000000E+00
-5.00000000E+00 2.00000000E+01 0.00000000E+00
-5.00000000E+00 1.80000000E+01 0.00000000E+00
-5.00000000E+00 1.60000000E+01 0.00000000E+00
-5.00000000E+00 1.40000000E+01 0.00000000E+00
-5.00000000E+00 1.20000000E+01 0.00000000E+00
-5.00000000E+00 1.00000000E+01 0.00000000E+00
-5.00000000E+00 8.00000000E+00 0.00000000E+00
-5.00000000E+00 6.00000000E+00 0.00000000E+00
-5.00000000E+00 4.00000000E+00 0.00000000E+00
-5.00000000E+00 2.00000000E+00 0.00000000E+00
-7.00000000E+00 0.00000000E+00 0.00000000E+00
-9.00000000E+00 0.00000000E+00 0.00000000E+00
-1.10000000E+01 0.00000000E+00 0.00000000E+00
-1.30000000E+01 0.00000000E+00 0.00000000E+00
-1.50000000E+01 0.00000000E+00 0.00000000E+00
-1.70000000E+01 0.00000000E+00 0.00000000E+00
-1.90000000E+01 0.00000000E+00 0.00000000E+00
-2.10000000E+01 0.00000000E+00 0.00000000E+00
-2.30000000E+01 0.00000000E+00 0.00000000E+00
3.00000000E+00 -1.00000000E+01 0.00000000E+00
1.00000000E+00 -1.00000000E+01 0.00000000E+00
-1.00000000E+00 -1.00000000E+01 0.00000000E+00
-3.00000000E+00 -1.00000000E+01 0.00000000E+00
-5.00000000E+00 -1.00000000E+01 0.00000000E+00
-7.00000000E+00 -1.00000000E+01 0.00000000E+00
-9.00000000E+00 -1.00000000E+01 0.00000000E+00
-1.10000000E+01 -1.00000000E+01 0.00000000E+00
-1.30000000E+01 -1.00000000E+01 0.00000000E+00
-1.50000000E+01 -1.00000000E+01 0.00000000E+00
-1.70000000E+01 -1.00000000E+01 0.00000000E+00
-1.90000000E+01 -1.00000000E+01 0.00000000E+00
-2.10000000E+01 -1.00000000E+01 0.00000000E+00
-2.30000000E+01 -1.00000000E+01 0.00000000E+00
5.00000000E+00 1.80000000E+01 0.00000000E+00
5.00000000E+00 1.60000000E+01 0.00000000E+00
5.00000000E+00 1.40000000E+01 0.00000000E+00
5.00000000E+00 1.20000000E+01 0.00000000E+00
5.00000000E+00 1.00000000E+01 0.00000000E+00
5.00000000E+00 8.00000000E+00 0.00000000E+00
5.00000000E+00 6.00000000E+00 0.00000000E+00
5.00000000E+00 4.00000000E+00 0.00000000E+00
5.00000000E+00 2.00000000E+00 0.00000000E+00
5.00000000E+00 0.00000000E+00 0.00000000E+00
5.00000000E+00 -2.00000000E+00 0.00000000E+00
5.00000000E+00 -4.00000000E+00 0.00000000E+00
5.00000000E+00 -6.00000000E+00 0.00000000E+00
5.00000000E+00 -8.00000000E+00 0.00000000E+00
6.42857122E+00 2.14285717E+01 0.00000000E+00
7.85714293E+00 2.28571434E+01 0.00000000E+00
9.28571415E+00 2.42857151E+01 0.00000000E+00
1.07142859E+01 2.57142849E+01 0.00000000E+00
1.21428576E+01 2.71428566E+01 0.00000000E+00
1.35714283E+01 2.85714283E+01 0.00000000E+00
-2.63336372E+01 -7.76659107E+00 0.00000000E+00
-2.82226868E+01 -6.43824339E+00 0.00000000E+00
-2.81175652E+01 -4.60588837E+00 0.00000000E+00
-2.61591434E+01 -2.10037327E+00 0.00000000E+00
7.94419193E+00 2.81601086E+01 0.00000000E+00
-3.19118237E+00 2.72962761E+01 0.00000000E+00
-5.94074678E+00 -1.56135583E+00 0.00000000E+00
-3.28010941E+00 6.99999666E+00 0.00000000E+00
-7.98214865E+00 -1.62386549E+00 0.00000000E+00
5.94069958E+00 2.82131767E+01 0.00000000E+00
3.96576309E+00 2.81945496E+01 0.00000000E+00
1.96850979E+00 2.81876316E+01 0.00000000E+00
-9.25469864E-03 2.82110806E+01 0.00000000E+00
-3.19306159E+00 2.51208878E+01 0.00000000E+00
-3.24140286E+00 2.30419273E+01 0.00000000E+00
-3.26721168E+00 2.10157700E+01 0.00000000E+00
-3.29015899E+00 1.90030117E+01 0.00000000E+00
-3.29848814E+00 1.69995918E+01 0.00000000E+00
-3.29507470E+00 1.49994574E+01 0.00000000E+00
-3.28950334E+00 1.29997454E+01 0.00000000E+00
-3.28517389E+00 1.09999161E+01 0.00000000E+00
-3.28540468E+00 8.99997520E+00 0.00000000E+00
-3.28817058E+00 4.99999905E+00 0.00000000E+00
-3.32450199E+00 2.98746324E+00 0.00000000E+00
-3.41863847E+00 9.27179158E-01 0.00000000E+00
-9.99433708E+00 -1.64214647E+00 0.00000000E+00
-1.19982300E+01 -1.64728785E+00 0.00000000E+00
-1.39994688E+01 -1.64868796E+00 0.00000000E+00
-1.59998932E+01 -1.64905524E+00 0.00000000E+00
-1.80005169E+01 -1.65485740E+00 0.00000000E+00
-1.99944210E+01 -1.67004955E+00 0.00000000E+00
-2.19607010E+01 -1.70543468E+00 0.00000000E+00
-2.40205898E+01 -8.05579758E+00 0.00000000E+00
-2.39267063E+01 -1.82353294E+00 0.00000000E+00
2.29777122E+00 -8.18962097E+00 0.00000000E+00
1.23059466E-01 -8.18267441E+00 0.00000000E+00
-1.95802188E+00 -8.22096157E+00 0.00000000E+00
-3.98471189E+00 -8.24636459E+00 0.00000000E+00
-5.99523783E+00 -8.26851940E+00 0.00000000E+00
-7.99814987E+00 -8.27763176E+00 0.00000000E+00
-9.99911308E+00 -8.28131580E+00 0.00000000E+00
-1.19996176E+01 -8.28250790E+00 0.00000000E+00
-1.39998579E+01 -8.28286648E+00 0.00000000E+00
-1.59999981E+01 -8.28308964E+00 0.00000000E+00
-1.80003262E+01 -8.28923416E+00 0.00000000E+00
-1.99951019E+01 -8.28801823E+00 0.00000000E+00
-2.19786606E+01 -8.23145771E+00 0.00000000E+00
3.37062716E+00 1.89233551E+01 0.00000000E+00
3.34054041E+00 1.69807224E+01 0.00000000E+00
3.33640957E+00 1.49944878E+01 0.00000000E+00
3.34315801E+00 1.29984617E+01 0.00000000E+00
3.34957194E+00 1.09995937E+01 0.00000000E+00
3.35198402E+00 8.99989700E+00 0.00000000E+00
3.35113668E+00 6.99997568E+00 0.00000000E+00
3.34448671E+00 4.99999523E+00 0.00000000E+00
3.32652950E+00 2.99973011E+00 0.00000000E+00
3.30527616E+00 9.98020113E-01 0.00000000E+00
3.28119373E+00 -1.01071751E+00 0.00000000E+00
3.25898099E+00 -3.01927686E+00 0.00000000E+00
3.24397135E+00 -5.00071239E+00 0.00000000E+00
1.02151985E+01 2.80007057E+01 0.00000000E+00
8.72700691E+00 2.62242470E+01 0.00000000E+00
4.53118944E+00 2.19883575E+01 0.00000000E+00
7.42255640E+00 2.47146339E+01 0.00000000E+00
6.02210903E+00 2.33871956E+01 0.00000000E+00
-2.49141693E+01 -5.84206676E+00 0.00000000E+00
-2.77587090E+01 -3.09401059E+00 0.00000000E+00
-3.74367332E+00 -1.32242095E+00 0.00000000E+00
3.37542582E+00 -6.68383884E+00 0.00000000E+00
-1.68782008E+00 2.83659058E+01 0.00000000E+00
2.93006825E+00 2.63407249E+01 0.00000000E+00
1.37449419E+00 -6.19837618E+00 0.00000000E+00
-6.99313116E+00 -6.56894302E+00 0.00000000E+00
-8.99560261E+00 -6.58624029E+00 0.00000000E+00
-1.09978485E+01 -6.59370756E+00 0.00000000E+00
-1.29991169E+01 -6.59640884E+00 0.00000000E+00
-1.49997482E+01 -6.59741163E+00 0.00000000E+00
-1.70005054E+01 -6.60687542E+00 0.00000000E+00
-1.89910336E+01 -6.61446953E+00 0.00000000E+00
-2.09443874E+01 -6.58081102E+00 0.00000000E+00
-1.56252813E+00 2.00199757E+01 0.00000000E+00
1.69096434E+00 1.59887323E+01 0.00000000E+00
1.69573748E+00 1.39958906E+01 0.00000000E+00
1.70559001E+00 1.19987364E+01 0.00000000E+00
1.71235800E+00 9.99965000E+00 0.00000000E+00
1.70500433E+00 5.99998617E+00 0.00000000E+00
1.67963386E+00 3.99886894E+00 0.00000000E+00
1.64330435E+00 1.99145818E+00 0.00000000E+00
9.05702949E-01 2.64169083E+01 0.00000000E+00
-1.23154819E+00 2.63408546E+01 0.00000000E+00
-1.48619592E+00 2.40970173E+01 0.00000000E+00
-1.52001476E+00 2.20616055E+01 0.00000000E+00
-1.60393560E+00 1.80015297E+01 0.00000000E+00
1.71200323E+00 7.99990702E+00 0.00000000E+00
1.57110965E+00 -2.04215574E+00 0.00000000E+00
-8.83958101E-01 -6.38697195E+00 0.00000000E+00
-2.94760537E+00 -6.42948389E+00 0.00000000E+00
-4.98543882E+00 -6.52348185E+00 0.00000000E+00
-6.97729588E+00 -3.23084092E+00 0.00000000E+00
-8.98907471E+00 -3.26648521E+00 0.00000000E+00
-1.09956169E+01 -3.28038645E+00 0.00000000E+00
-1.29984198E+01 -3.28506351E+00 0.00000000E+00
-1.49995422E+01 -3.28655887E+00 0.00000000E+00
-1.70005360E+01 -3.29590154E+00 0.00000000E+00
-1.89907722E+01 -3.31196833E+00 0.00000000E+00
-2.09331837E+01 -3.33244610E+00 0.00000000E+00
-1.61828923E+00 1.59975128E+01 0.00000000E+00
-1.61388779E+00 1.39984798E+01 0.00000000E+00
-1.60545456E+00 1.19994555E+01 0.00000000E+00
-1.59979153E+00 9.99984074E+00 0.00000000E+00
-1.59754860E+00 7.99995708E+00 0.00000000E+00
-1.60532558E+00 5.99998999E+00 0.00000000E+00
-1.63823593E+00 3.99409580E+00 0.00000000E+00
-1.70293796E+00 1.96242869E+00 0.00000000E+00
1.60747373E+00 -2.72606201E-02 0.00000000E+00
1.55121040E+00 -4.03328276E+00 0.00000000E+00
4.92077351E+00 2.64265118E+01 0.00000000E+00
1.72852290E+00 1.79747887E+01 0.00000000E+00
-2.27829800E+01 -3.40262842E+00 0.00000000E+00
-2.28547916E+01 -6.42256784E+00 0.00000000E+00
3.40620279E+00 2.06201363E+01 0.00000000E+00
6.79960585E+00 2.64659615E+01 0.00000000E+00
4.04114676E+00 2.42806396E+01 0.00000000E+00
-2.45952816E+01 -3.71108937E+00 0.00000000E+00
1.19858971E+01 2.87429981E+01 0.00000000E+00
-2.63854027E+01 -4.19141436E+00 0.00000000E+00
-2.33982754E+01 -4.86368704E+00 0.00000000E+00
2.28591108E+00 2.22277603E+01 0.00000000E+00
5.53736538E-02 1.69928093E+01 0.00000000E+00
-1.80476701E+00 -1.20870896E-01 0.00000000E+00
-4.98795748E+00 -3.15208316E+00 0.00000000E+00
1.10525833E-02 -4.82521629E+00 0.00000000E+00
-4.00782299E+00 -4.75885105E+00 0.00000000E+00
-5.99015188E+00 -4.85574389E+00 0.00000000E+00
[...]
POINT_DATA      889
SCALARS Ux float
LOOKUP_TABLE default
1.00000000E+00
5.23481360E+01
5.94271002E+02
-0.00000000E+00
-0.00000000E+00
-0.00000000E+00
-0.00000000E+00
-0.00000000E+00
0.00000000E+00
0.00000000E+00
-0.00000000E+00
-0.00000000E+00
-6.49932114E-02
1.00000000E+00
-3.78228340E+01
9.99997531E-01
1.00000247E+00
9.99287782E-01
5.02664215E+00
-4.81758117E+01
2.45203253E+00
1.28544353E+00
1.52708501E+01
-6.07021449E+00
-4.78480136E+02
-1.92730072E+02
-3.01738001E+02
7.18389841E+01
2.53426674E+02
-1.85610072E+01
-1.35333849E+02
4.97690442E+02
5.19668333E+02
3.08516970E+01
9.73581543E+00
-4.56471653E+01
1.13210486E+02
2.94315714E+02
-1.16003436E+02
-1.20919623E+02
1.30656904E+01
4.09058492E+01
-1.40317273E+02
3.70633204E+01
-1.49238901E+00
-4.12773349E-06
1.39241003E+01
4.84541745E+01
4.85194450E+01
-4.49165223E+01
-3.87281331E+01
-6.96739437E+01
-4.04929602E+01
3.30786211E+01
-2.02415153E+01
3.03953155E+01
3.02507999E+01
-1.86642785E+01
-6.70460906E-02
-6.16386023E-01
-1.03567552E+01
-1.43440174E+02
-3.50191384E+01
1.79247044E+02
4.41699165E+01
4.43073874E+01
-7.52972640E+01
-3.91130749E+02
-1.21647912E+02
-6.59417941E+00
-1.86789982E+01
-1.20198806E+01
-4.90830335E+00
-8.44926014E-01
1.00000000E+00
1.00000000E+00
1.00000000E+00
1.00000000E+00
1.00000000E+00
1.00000000E+00
4.59059534E-10
1.75541771E-09
2.35061933E-09
-8.59040532E-10
9.99999861E-01
2.92696082E+00
-2.46816951E+01
-2.41408100E-01
-1.18310485E+01
9.99999661E-01
9.99623314E-01
3.01747604E+00
7.05478518E-01
2.18040376E+01
9.87307909E+00
1.26291310E+01
-2.89392324E+00
-9.46173049E+00
2.17835815E+00
5.00836616E+00
-1.99622310E+01
-2.84001211E-01
7.98840526E-01
2.47706320E+00
-5.77200351E+00
5.30419135E+00
5.01439256E+00
-6.44467245E-01
-1.23675435E+00
5.75296955E+00
-1.55370682E+00
6.78459213E-02
2.10610719E-07
1.95861494E-07
4.29100968E-01
-9.95793131E-01
-8.63396361E-01
2.03751081E+00
1.73535396E+00
2.96946482E+00
1.65785660E+00
-1.33449827E+00
8.11774439E-01
-1.31209642E+00
-1.21904870E+00
7.86360452E-01
1.36497740E-05
1.44802385E+00
1.45931711E+00
7.03818011E+00
2.15619532E+00
-6.53199042E+00
-8.45539740E-01
-9.72334516E-01
4.88578980E+00
1.76570263E+01
6.13342993E+00
1.19844058E+00
1.89894845E+00
1.63669161E+00
9.99999889E-01
1.00000001E+00
9.99999905E-01
9.99999989E-01
1.00000001E+00
-2.46608164E-07
-2.20458613E-09
-2.47249624E+01
1.30985305E+00
1.39838070E-01
9.90964197E-01
1.05569094E+00
-1.81405343E-01
-1.27204704E-01
-3.68262192E-02
7.84304197E-02
-1.97841704E-02
7.02721372E-02
6.12273833E-02
-3.33550721E-02
4.64210129E-01
7.33491175E-01
7.05466228E-01
9.37829146E-01
1.33243551E+00
8.58396527E-01
8.42956286E-01
3.41024488E-01
8.96391240E-01
8.33427194E-01
1.15864019E-01
4.27458146E-01
1.13038098E+00
1.09666505E+00
1.03258615E+00
1.15728319E+00
1.15758340E+00
-1.00204501E-01
1.06766966E+00
5.01216525E-01
-2.16049341E-01
-1.94457655E-01
4.33766713E-02
4.33896853E-02
-2.34997585E-01
6.79699681E-02
1.44379885E+00
9.56223769E-01
8.96514834E-01
1.82050550E+00
1.09843648E+00
1.07634253E+00
1.05136565E+00
1.03894903E+00
8.35261266E-01
1.01404535E+00
1.00001642E+00
9.31210143E-01
4.61064046E-06
-1.05771140E-06
9.78665540E-01
9.99999998E-01
1.00000076E+00
-2.36284860E-08
1.00000000E+00
-3.70710336E-09
-1.68433046E-07
1.00101574E+00
9.74377529E-01
1.37454194E+00
1.11811165E+00
1.06692241E+00
1.11556313E+00
-1.10329220E-01
-4.84474582E-02
8.45132155E-03
3.40724048E-02
2.00495593E-02
1.17317746E-02
1.04510383E-02
1.05366564E+00
1.03040755E+00
1.04152118E+00
1.06334724E+00
1.09163056E+00
1.07534695E+00
1.01929392E+00
1.00786344E+00
9.73394851E-01
9.94152978E-01
9.93277044E-01
1.02231381E+00
9.80163727E-01
9.55478014E-01
9.60162436E-03
9.55202481E-01
-3.99835587E-07
9.99999977E-01
1.04770222E+00
1.06252101E+00
9.99953172E-01
9.98460333E-01
4.38238506E-09
9.99999987E-01
9.99999970E-01
9.99999964E-01
2.69152493E+00
-3.66759685E+01
-3.75651795E+01
-3.57389378E+00
9.72000488E-02
-1.60649504E-01
4.78712024E+00
5.61961333E-01
5.56233381E-01
1.10800062E+00
2.76911180E+01
1.31457381E+01
1.84395852E-07
-5.13653175E-02
-5.13653177E-02
8.65936501E-10
2.87313576E-18
-1.95131149E-10
1.23077965E-09
1.26112010E-09
-4.98858186E-09
-3.59166496E-09
4.53546301E-09
2.15181178E-09
1.92579932E-09
2.00811708E-09
3.38433239E-09
-1.70596694E-08
-1.65679336E-08
-1.30918388E-09
-5.93665843E-10
-1.38523863E-09
9.99999986E-01
9.99999993E-01
1.00000000E+00
9.99940630E-01
9.99940346E-01
9.99261372E-01
1.16741577E+00
1.16020098E+00
9.99969999E-01
1.33552354E+00
1.33522390E+00
1.00000004E+00
9.99245691E-01
9.99248364E-01
-2.93053715E+00
-1.33270847E+00
8.84422386E-01
8.37302094E-01
9.47357916E-01
4.19831860E-01
-1.35859019E+00
1.73118363E+00
-3.12807591E-01
1.44848930E+00
1.00255713E+00
2.55207852E+00
-2.06728550E+01
9.58863741E-01
-1.69189787E+01
-6.51339356E+00
1.43128113E+00
-2.45363089E+01
-1.36829655E+01
-4.69499503E-01
4.46465492E+00
3.98061297E+00
2.19947902E-01
2.15799977E+01
1.27192952E+01
1.49195304E+00
7.33679986E-01
-3.49259858E-02
1.31421793E+00
-1.01451326E+01
-6.80473540E+00
-8.39226116E-01
4.02176135E+01
2.42159333E+01
2.39753209E+01
2.13842288E+01
1.01686897E+00
1.05413794E+00
1.88557324E+00
1.50024474E+00
1.17121448E+00
-2.69928601E+00
-1.60321512E+00
4.71887015E-01
9.69967222E+00
4.48691504E+00
8.93665181E-01
1.06462219E+00
1.05910565E+00
9.25066641E-01
-7.75596562E+00
-5.51874589E+00
2.49706895E-01
-1.02689443E+01
-5.46803383E+00
-2.32858108E-01
4.38083377E-01
7.33831715E-01
-7.32106775E-02
3.38931570E+00
2.29980791E+00
5.19187465E-01
-1.10708557E+01
-6.71078914E+00
-3.33290552E-01
2.27590536E+00
1.96882363E+00
5.53359828E-02
6.04458006E-02
-1.29738354E-01
-3.12579816E-02
3.98592302E-02
6.27483941E-02
-6.10084471E-10
-6.79505466E-10
1.71309204E-07
2.32397678E+00
1.15821899E+00
-1.64555516E-01
3.55472898E+00
8.85223693E-01
5.18817242E+00
1.18608296E+00
1.18336336E+00
9.17996602E-01
9.91392609E-01
1.05076320E+00
1.41629350E+00
-2.70997634E+00
1.18318896E+00
-4.61199069E+00
-1.21485370E+00
7.45550733E-02
-5.73438699E-02
-1.60186441E-01
1.09610855E-01
2.05228644E-01
-2.69352763E-03
5.03276805E-02
-9.84274284E-02
2.62540246E-02
-8.75763704E-03
9.93817006E-02
9.95367104E-03
-4.33396337E-03
-6.54459650E-02
2.30486542E-02
-9.86469442E-02
9.04574329E-03
5.16875500E-03
-1.52484126E-02
9.21949906E-02
8.63627591E-03
3.63449183E-02
-2.40828374E-02
8.68161266E-03
9.56265494E-01
9.54243172E-01
9.53214600E-01
9.49583766E-01
9.36583479E-01
9.64340597E-01
7.68248686E-01
3.03343436E-01
1.05667204E+00
1.29363943E+00
9.71664718E-01
7.28117179E-01
6.07223088E-01
9.69230827E-01
5.86317715E-01
1.20880268E+00
9.71867234E-01
-2.95896423E-01
-4.05864035E+00
9.24886793E-01
1.54482922E+00
1.05665220E+00
8.73643660E-01
1.88044533E+00
1.01269437E+00
2.02537487E+00
6.24202365E-01
1.10435222E+00
-2.79171037E-01
7.81463075E-01
1.28499719E+00
-3.95831648E-01
1.26062158E+00
9.83158353E-01
2.25935802E-01
1.38583823E+00
1.08952251E+00
1.09359012E+00
7.54975343E-01
7.01890885E-01
9.99999996E-01
9.99999994E-01
9.99999991E-01
1.00000000E+00
1.00000000E+00
9.99999902E-01
9.99999891E-01
1.00000000E+00
-6.17618287E-01
-6.17618090E-01
1.00000000E+00
-2.23523617E+00
-2.23523617E+00
1.00000000E+00
-2.23523617E+00
-2.44173546E-10
-6.61412314E-18
7.81277759E-18
5.51613795E-10
-1.30104261E-18
3.21664196E-10
-2.16840434E-18
-7.75240004E-10
-2.86805081E-10
-1.60688822E-09
-5.20417043E-18
-4.44935649E-07
-2.77994612E-03
-2.77998325E-03
-6.02816408E-17
9.99999788E-01
9.99940231E-01
1.33555321E+00
3.13965030E+00
9.91324994E-01
1.07708885E+00
-2.39316502E+01
-4.89279242E+01
-2.10475243E+01
1.96245720E+01
-3.11500365E+00
-5.92842821E+00
-4.89508693E+00
1.05568787E+00
-3.09831392E+00
9.99999990E-01
9.99999993E-01
2.88627855E+00
1.00000000E+00
1.00000000E+00
1.00000001E+00
8.50142166E-01
8.26582019E-01
9.63673277E-01
9.61809890E-01
9.99578631E-01
7.78251602E-01
2.58873543E-01
9.84769773E-01
9.68860380E-01
8.25388306E-01
-1.55973877E+01
9.20657762E-01
2.66820863E+00
1.95311029E+00
1.74484499E+01
1.83783176E+00
8.24088351E-01
9.38923847E-01
1.91129205E+01
9.60035051E-01
1.00097341E+00
-9.94634492E+00
9.60743315E-01
-9.76599610E+00
-5.56283437E+00
-4.57910279E+00
9.66039661E-01
4.59472888E+01
-7.25407100E+00
4.82088659E+00
2.60474242E+01
4.65758440E+01
6.43703621E+00
9.94181275E+00
1.01405515E+00
1.60663033E+00
4.22254337E+01
1.10621752E+01
-3.69539549E+00
1.93281816E+00
1.49071406E+00
8.48606333E-01
1.03010427E+00
1.03538739E+00
1.16349225E+01
-1.82968205E+01
-1.21030763E+01
4.45752914E+01
4.91891840E+01
-2.22129941E+01
1.07883842E+01
-4.40067347E-01
4.31197001E-02
3.89162017E-02
3.90223900E-02
-5.04533231E+00
6.56341258E+00
1.76950704E+00
5.69740900E+00
-5.45512941E-01
3.07635581E+00
1.08732561E-02
3.05384495E+00
7.45469298E-01
-1.87292774E+00
3.48744607E-01
-1.28021189E+01
2.89981175E-01
1.86556592E+00
-2.44302024E-01
8.07092696E+00
2.64530859E+00
1.80013498E-01
1.86034982E-01
-1.24415215E+00
6.76554108E-01
-1.95368725E+00
8.44410140E-02
-5.37294699E-03
-2.81803811E-03
-8.70084733E-01
5.83684417E-01
-1.91200267E-01
2.83613264E-03
2.82674079E-03
2.83133192E-03
2.83096402E-03
1.87754613E-07
4.81423832E-10
-5.13535496E-02
-5.57522188E-03
2.82708477E-03
-1.54117683E-08
-1.26326973E-08
-3.48371070E-09
-1.69142322E+00
1.08917038E+00
1.06780627E+00
1.05601829E+00
1.06975149E+00
1.06628102E+00
1.06204801E+00
-2.71541555E+00
1.02583206E+00
1.19422203E+00
1.07335090E+00
7.88353066E+00
-1.11330295E-02
9.36826292E-02
1.06840783E+00
-1.73055281E+00
-5.68858237E-02
-5.01190868E-02
-1.12446998E-01
3.63450542E+00
-6.28088339E-02
-5.91441836E-02
6.44607179E-01
-4.73991149E-03
1.82319229E-03
-1.94257791E-03
-8.00389284E+00
3.00124368E-02
3.37855651E-02
2.89832051E-02
6.30891062E+00
2.32548923E-02
1.95583910E-02
2.36506656E-02
-4.03972240E+00
1.15446276E-02
1.48641050E-02
1.11117588E-02
-1.94164429E+00
1.75518109E-02
1.26734473E-02
1.30503121E-02
4.65994095E+00
1.21139086E-02
7.88254643E-03
1.18234821E-02
-1.50991014E+00
-1.71741427E-07
-2.45753180E-07
2.01815755E-07
-3.63270653E+00
9.18822735E-01
1.00000001E+00
1.00000000E+00
9.81332340E-01
9.80877673E-01
1.01999612E+00
1.03003305E+00
1.59111715E+01
9.89401791E-01
1.00896101E+00
9.06726448E-01
1.01212178E+00
1.00714604E+00
9.84436083E-01
-2.15509107E+01
9.90842751E-01
1.06784197E+00
1.04078407E+00
1.18183886E+01
1.04267607E+00
1.04083491E+00
1.02734558E+00
-4.07009625E+00
1.02351766E+00
1.02259708E+00
-2.13602206E+00
1.02143625E+00
1.03406802E+00
3.71078413E+01
1.04187848E+00
1.04084377E+00
1.04171702E+00
-1.58934905E+01
1.29190779E+00
8.09207339E-01
1.01483190E+00
-8.80634800E+00
1.06645444E+00
1.05091631E+00
2.26768982E+00
1.11373087E+00
1.04153401E+00
1.05246138E+00
8.30911762E-01
1.07799974E+00
1.11469775E+00
1.24730713E+00
6.54675692E-01
-6.17617679E-01
1.00000001E+00
1.00000000E+00
1.00000001E+00
1.00000000E+00
9.99999916E-01
1.00000000E+00
1.00000000E+00
9.99999984E-01
1.00000135E+00
1.00000135E+00
1.00000000E+00
1.00000073E+00
9.99999908E-01
-1.98194017E-07
-9.18125741E-07
2.20768507E-07
-4.47188425E-18
-1.56571909E-09
-8.14399795E-01
2.76477412E+01
1.07014173E+00
1.42432409E+00
7.70296905E-01
9.78988783E-01
9.99206073E-01
9.90948470E-01
1.05201479E+00
1.05025817E+00
1.08512832E+00
4.93753362E-02
1.54420044E-01
4.38627539E-02
4.71443059E-02
1.02748165E-02
1.21613808E-02
4.60649381E-03
2.75824327E-03
1.30556848E-02
1.47154236E-02
1.56884712E-02
1.32492895E-02
-8.63056995E-03
-1.07462509E-02
-5.90009227E-04
4.27401934E-03
6.06388177E-03
4.00101981E-04
2.83211637E-03
-2.78050608E-03
6.91237385E-01
7.67265174E-01
8.00256787E-02
9.66980767E-01
9.96282409E-01
9.91806152E-01
9.88354878E-01
9.73063900E-01
1.01156351E+00
1.04927128E+00
1.01258986E+00
1.02620458E+00
9.14320562E-01
1.03232151E+00
1.04193137E+00
1.07090438E+00
1.09887046E+00
5.31291080E-01
7.65013445E-01
1.20161014E+00
1.83263918E+00
1.01953792E+00
9.80454693E-01
9.18034260E-01
9.59997880E-01
9.58260212E-01
9.59191471E-01
1.00088883E+00
1.00000141E+00
9.71081833E-01
9.62701635E-01
5.21945657E-01
9.12891481E-01
1.08250578E+00
1.06868458E+00
8.73748078E-01
1.07510174E+00
1.06757168E+00
1.06755917E+00
1.06653612E+00
-2.10866700E+00
8.10927606E-02
3.71133973E-02
-1.08011371E+00
-5.22053301E-03
-5.02870009E-01
3.87620053E-01
-1.26278495E-02
2.73856795E-01
4.49830847E-01
1.39606880E-02
2.38713543E-01
-1.49230286E-02
2.25777705E-02
-2.38534186E-02
-9.19610771E-02
1.47165082E-02
-6.32895267E-02
4.65848672E-01
-9.94964962E-03
2.75599145E-01
-9.53913909E-02
1.45010453E-02
-7.97934122E-02
3.89764745E-04
8.48994309E-03
1.05061507E+00
1.07838393E+00
1.34482457E+00
1.24165698E+00
-6.70386850E-01
-3.32221528E-02
7.37515921E-01
1.01331955E+00
9.29181193E-01
9.67450559E-01
9.98311087E-01
1.03136259E+00
1.15965190E+00
1.15930924E+00
1.09876329E+00
1.07518734E+00
1.00414984E+00
1.06252457E+00
1.06766777E+00
1.00000136E+00
9.99982965E-01
9.96186547E-01
9.95271247E-01
9.56158055E-01
9.77691960E-01
-2.36407807E-07
9.99999828E-01
9.99999899E-01
1.00000066E+00
1.00000001E+00
4.27140547E-08
2.41742839E-08
-1.68870186E-07
1.00000000E+00
9.99999796E-01
1.98394926E-09
5.50159153E-09
2.83171816E-03
9.84545068E-01
9.79554476E-01
9.79709967E-01
-1.09818948E+00
1.05161139E+00
1.07676921E+00
1.06349620E+00
1.06268940E+00
1.04885105E+00
1.06132054E+00
-1.08640151E+00
-1.08705339E+00
-7.74966103E-03
-7.53728444E-03
1.07337591E+00
4.19838953E-02
1.06479995E+00
1.01140768E+00
1.00826283E+00
1.00634887E+00
9.95786744E-01
1.06490614E+00
1.01903745E+00
1.01573985E+00
1.03861118E+00
1.00475110E+00
9.85391070E-01
9.88594404E-01
9.67748923E-01
9.69329306E-01
9.59636104E-01
9.93571742E-01
9.34973762E-01
9.35861182E-01
9.14138195E-01
9.57134328E-01
9.15567595E-01
7.99741383E-04
9.99999979E-01
-7.32490785E-03
1.06925747E+00
9.90016777E-01
