# vtk DataFile Version 1.0
ECM-CELL DIFFUSION-MECHANICS
ASCII

DATASET UNSTRUCTURED_GRID
POINTS      732 float
1.50000000E+001 3.00000000E+001 0.00000000E+000
-5.00000000E+000 3.00000000E+001 0.00000000E+000
-5.00000000E+000 0.00000000E+000 0.00000000E+000
-2.50000000E+001 0.00000000E+000 0.00000000E+000
-2.69134178E+001 -9.61939812E+000 0.00000000E+000
-2.85355339E+001 -8.53553391E+000 0.00000000E+000
-2.96193981E+001 -6.91341734E+000 0.00000000E+000
-3.00000000E+001 -5.00000000E+000 0.00000000E+000
-2.96193981E+001 -3.08658290E+000 0.00000000E+000
-2.85355339E+001 -1.46446609E+000 0.00000000E+000
-2.69134178E+001 -3.80602330E-001 0.00000000E+000
-2.50000000E+001 -1.00000000E+001 0.00000000E+000
5.00000000E+000 -1.00000000E+001 0.00000000E+000
5.00000000E+000 2.00000000E+001 0.00000000E+000
1.30000000E+001 3.00000000E+001 0.00000000E+000
1.10000000E+001 3.00000000E+001 0.00000000E+000
9.00000000E+000 3.00000000E+001 0.00000000E+000
7.00000000E+000 3.00000000E+001 0.00000000E+000
5.00000000E+000 3.00000000E+001 0.00000000E+000
3.00000000E+000 3.00000000E+001 0.00000000E+000
1.00000000E+000 3.00000000E+001 0.00000000E+000
-1.00000000E+000 3.00000000E+001 0.00000000E+000
-3.00000000E+000 3.00000000E+001 0.00000000E+000
-5.00000000E+000 2.80000000E+001 0.00000000E+000
-5.00000000E+000 2.60000000E+001 0.00000000E+000
-5.00000000E+000 2.40000000E+001 0.00000000E+000
-5.00000000E+000 2.20000000E+001 0.00000000E+000
-5.00000000E+000 2.00000000E+001 0.00000000E+000
-5.00000000E+000 1.80000000E+001 0.00000000E+000
-5.00000000E+000 1.60000000E+001 0.00000000E+000
-5.00000000E+000 1.40000000E+001 0.00000000E+000
-5.00000000E+000 1.20000000E+001 0.00000000E+000
-5.00000000E+000 1.00000000E+001 0.00000000E+000
-5.00000000E+000 8.00000000E+000 0.00000000E+000
-5.00000000E+000 6.00000000E+000 0.00000000E+000
-5.00000000E+000 4.00000000E+000 0.00000000E+000
-5.00000000E+000 2.00000000E+000 0.00000000E+000
-7.00000000E+000 0.00000000E+000 0.00000000E+000
-9.00000000E+000 0.00000000E+000 0.00000000E+000
-1.10000000E+001 0.00000000E+000 0.00000000E+000
-1.30000000E+001 0.00000000E+000 0.00000000E+000
-1.50000000E+001 0.00000000E+000 0.00000000E+000
-1.70000000E+001 0.00000000E+000 0.00000000E+000
-1.90000000E+001 0.00000000E+000 0.00000000E+000
-2.10000000E+001 0.00000000E+000 0.00000000E+000
-2.30000000E+001 0.00000000E+000 0.00000000E+000
3.00000000E+000 -1.00000000E+001 0.00000000E+000
1.00000000E+000 -1.00000000E+001 0.00000000E+000
-1.00000000E+000 -1.00000000E+001 0.00000000E+000
-3.00000000E+000 -1.00000000E+001 0.00000000E+000
-5.00000000E+000 -1.00000000E+001 0.00000000E+000
-7.00000000E+000 -1.00000000E+001 0.00000000E+000
-9.00000000E+000 -1.00000000E+001 0.00000000E+000
-1.10000000E+001 -1.00000000E+001 0.00000000E+000
-1.30000000E+001 -1.00000000E+001 0.00000000E+000
-1.50000000E+001 -1.00000000E+001 0.00000000E+000
-1.70000000E+001 -1.00000000E+001 0.00000000E+000
-1.90000000E+001 -1.00000000E+001 0.00000000E+000
-2.10000000E+001 -1.00000000E+001 0.00000000E+000
-2.30000000E+001 -1.00000000E+001 0.00000000E+000
5.00000000E+000 1.80000000E+001 0.00000000E+000
5.00000000E+000 1.60000000E+001 0.00000000E+000
5.00000000E+000 1.40000000E+001 0.00000000E+000
5.00000000E+000 1.20000000E+001 0.00000000E+000
5.00000000E+000 1.00000000E+001 0.00000000E+000
5.00000000E+000 8.00000000E+000 0.00000000E+000
5.00000000E+000 6.00000000E+000 0.00000000E+000
5.00000000E+000 4.00000000E+000 0.00000000E+000
5.00000000E+000 2.00000000E+000 0.00000000E+000
5.00000000E+000 0.00000000E+000 0.00000000E+000
5.00000000E+000 -2.00000000E+000 0.00000000E+000
5.00000000E+000 -4.00000000E+000 0.00000000E+000
5.00000000E+000 -6.00000000E+000 0.00000000E+000
5.00000000E+000 -8.00000000E+000 0.00000000E+000
6.42857122E+000 2.14285717E+001 0.00000000E+000
7.85714293E+000 2.28571434E+001 0.00000000E+000
9.28571415E+000 2.42857151E+001 0.00000000E+000
1.07142859E+001 2.57142849E+001 0.00000000E+000
1.21428576E+001 2.71428566E+001 0.00000000E+000
1.35714283E+001 2.85714283E+001 0.00000000E+000
-2.55692158E+001 -7.47994947E+000 0.00000000E+000
-2.68123989E+001 -6.65812349E+000 0.00000000E+000
-2.78370075E+001 -5.65078545E+000 0.00000000E+000
-2.49931679E+001 -2.99975061E+000 0.00000000E+000
-6.07402325E+000 -2.51799893E+000 0.00000000E+000
-3.41205382E+000 6.06536293E+000 0.00000000E+000
-7.90601015E+000 -2.16468501E+000 0.00000000E+000
6.93360615E+000 2.85683231E+001 0.00000000E+000
5.03122282E+000 2.85983677E+001 0.00000000E+000
3.07519960E+000 2.83579216E+001 0.00000000E+000
1.02007830E+000 2.82704353E+001 0.00000000E+000
-1.00747931E+000 2.81540108E+001 0.00000000E+000
-2.98253322E+000 2.20530071E+001 0.00000000E+000
-3.14535069E+000 1.99964409E+001 0.00000000E+000
-3.38007402E+000 1.80213890E+001 0.00000000E+000
-3.24730754E+000 1.60810070E+001 0.00000000E+000
-3.22061014E+000 1.40090933E+001 0.00000000E+000
-3.27037716E+000 1.19557343E+001 0.00000000E+000
-3.32515502E+000 9.95609379E+000 0.00000000E+000
-3.37583542E+000 7.99501371E+000 0.00000000E+000
-3.38906217E+000 4.20707273E+000 0.00000000E+000
-3.21241689E+000 2.45526028E+000 0.00000000E+000
-2.81301451E+000 1.00452256E+000 0.00000000E+000
-9.85906696E+000 -1.94350755E+000 0.00000000E+000
-1.18253517E+001 -1.81189597E+000 0.00000000E+000
-1.37737036E+001 -1.72045147E+000 0.00000000E+000
-1.56994905E+001 -1.64893782E+000 0.00000000E+000
-1.76126289E+001 -1.59551537E+000 0.00000000E+000
-1.95252953E+001 -1.56757510E+000 0.00000000E+000
-2.14428196E+001 -1.57937253E+000 0.00000000E+000
-2.40465412E+001 -7.98486996E+000 0.00000000E+000
-2.32975655E+001 -1.60528278E+000 0.00000000E+000
-8.58305335E-001 -8.21509266E+000 0.00000000E+000
-2.85219836E+000 -8.24649334E+000 0.00000000E+000
-4.86234474E+000 -8.28040028E+000 0.00000000E+000
-6.82275486E+000 -8.35858631E+000 0.00000000E+000
-8.72553921E+000 -8.46272755E+000 0.00000000E+000
-1.06668940E+001 -8.49340248E+000 0.00000000E+000
-1.26085234E+001 -8.47250462E+000 0.00000000E+000
-1.45571985E+001 -8.43932819E+000 0.00000000E+000
-1.65147133E+001 -8.41329861E+000 0.00000000E+000
-1.84622021E+001 -8.38815498E+000 0.00000000E+000
-2.03904629E+001 -8.34011364E+000 0.00000000E+000
-2.22757702E+001 -8.22864628E+000 0.00000000E+000
3.32341838E+000 1.79214497E+001 0.00000000E+000
3.49274993E+000 1.58118629E+001 0.00000000E+000
3.45036292E+000 1.38697481E+001 0.00000000E+000
3.40310287E+000 1.19041443E+001 0.00000000E+000
3.36840963E+000 9.92752457E+000 0.00000000E+000
3.33398676E+000 7.94917822E+000 0.00000000E+000
3.27319622E+000 5.98151016E+000 0.00000000E+000
3.14357090E+000 4.00265217E+000 0.00000000E+000
2.93195248E+000 2.00336671E+000 0.00000000E+000
2.85718203E+000 -7.79486522E-002 0.00000000E+000
2.96486330E+000 -2.16540527E+000 0.00000000E+000
3.04931951E+000 -4.18990898E+000 0.00000000E+000
3.07869506E+000 -6.14942598E+000 0.00000000E+000
3.06127834E+000 -8.08621216E+000 0.00000000E+000
8.87478542E+000 2.87956104E+001 0.00000000E+000
1.06500645E+001 2.90019722E+001 0.00000000E+000
9.73117542E+000 2.65182457E+001 0.00000000E+000
4.64431381E+000 2.23340874E+001 0.00000000E+000
8.02427673E+000 2.53785686E+001 0.00000000E+000
6.40424109E+000 2.39808598E+001 0.00000000E+000
-2.30793724E+001 -6.28166199E+000 0.00000000E+000
-2.65148945E+001 -3.90364408E+000 0.00000000E+000
-3.43422222E+000 -1.27146482E+000 0.00000000E+000
1.04067838E+000 2.66475811E+001 0.00000000E+000
1.10761571E+000 -8.16181087E+000 0.00000000E+000
-7.36092031E-001 -6.43063927E+000 0.00000000E+000
-4.75875711E+000 -6.53175259E+000 0.00000000E+000
-6.72676086E+000 -6.65011883E+000 0.00000000E+000
-8.50626945E+000 -6.96918011E+000 0.00000000E+000
-1.03056269E+001 -7.00035810E+000 0.00000000E+000
-1.21337996E+001 -6.91552496E+000 0.00000000E+000
-1.40198870E+001 -6.83708525E+000 0.00000000E+000
-1.59333124E+001 -6.77759314E+000 0.00000000E+000
-1.20785129E+000 1.97240963E+001 0.00000000E+000
-1.32478476E+000 1.64232349E+001 0.00000000E+000
1.96661806E+000 1.56013527E+001 0.00000000E+000
1.83737338E+000 1.38039751E+001 0.00000000E+000
1.66680229E+000 7.95078230E+000 0.00000000E+000
1.58930695E+000 6.05578279E+000 0.00000000E+000
1.41368437E+000 4.18972206E+000 0.00000000E+000
-2.88116503E+000 2.41189423E+001 0.00000000E+000
-1.05743062E+000 2.20182400E+001 0.00000000E+000
-2.06459260E+000 1.80287819E+001 0.00000000E+000
1.76209581E+000 1.18621569E+001 0.00000000E+000
1.71383548E+000 9.90428638E+000 0.00000000E+000
-1.96961384E+001 -6.65574455E+000 0.00000000E+000
1.10382271E+000 -2.44856596E+000 0.00000000E+000
-2.71728683E+000 -6.50229883E+000 0.00000000E+000
-6.94966459E+000 -4.68074226E+000 0.00000000E+000
-8.87774658E+000 -3.94481039E+000 0.00000000E+000
-1.07458334E+001 -3.67898369E+000 0.00000000E+000
-1.26495609E+001 -3.53031301E+000 0.00000000E+000
-1.45555058E+001 -3.42598987E+000 0.00000000E+000
-1.64351330E+001 -3.33984756E+000 0.00000000E+000
-1.82789097E+001 -3.26375914E+000 0.00000000E+000
-1.78273373E+001 -6.72471857E+000 0.00000000E+000
-2.00785789E+001 -3.19971037E+000 0.00000000E+000
-1.49681842E+000 1.40206604E+001 0.00000000E+000
-1.58211720E+000 1.19191847E+001 0.00000000E+000
-1.64738953E+000 9.92495728E+000 0.00000000E+000
-1.70833540E+000 7.99023056E+000 0.00000000E+000
-1.75975442E+000 6.13986826E+000 0.00000000E+000
-1.75903368E+000 4.42714834E+000 0.00000000E+000
-1.57233489E+000 2.89093947E+000 0.00000000E+000
8.35785091E-001 2.16724944E+000 0.00000000E+000
6.82180047E-001 -2.41043478E-001 0.00000000E+000
1.19283760E+000 -4.42227745E+000 0.00000000E+000
5.08529997E+000 2.73792095E+001 0.00000000E+000
3.36510825E+000 2.64843388E+001 0.00000000E+000
2.03854513E+000 1.69918709E+001 0.00000000E+000
-2.18747597E+001 -3.21142745E+000 0.00000000E+000
-2.14750767E+001 -6.53344297E+000 0.00000000E+000
3.87977886E+000 2.02254429E+001 0.00000000E+000
6.80135918E+000 2.67542229E+001 0.00000000E+000
3.63350844E+000 2.38850384E+001 0.00000000E+000
-2.38274765E+001 -3.46659899E+000 0.00000000E+000
1.18041360E+000 -6.30371428E+000 0.00000000E+000
[...]
POINT_DATA      732
SCALARS Ux float
LOOKUP_TABLE default
1.00000000E+000
-8.43037623E-002
5.55908334E-002
0.00000000E+000
-0.00000000E+000
-6.77626358E-020
0.00000000E+000
-2.71050543E-019
4.30292737E-019
-3.25260652E-019
-1.82959117E-019
-0.00000000E+000
-9.05280869E-003
1.00000000E+000
2.29232285E-001
-3.00808756E-001
-6.86286608E-001
3.75059335E-001
-2.23135649E+000
-2.41928387E+000
4.76208614E-001
6.25497107E-003
3.10216850E-002
-1.29367052E-001
-1.45103061E-001
-5.10531264E-001
-1.11320715E+000
5.20461741E-001
-1.50979139E-001
-2.29777331E-002
1.09856733E-001
-1.69119220E-002
4.80989565E-001
-3.15114621E-001
5.43040265E-001
2.65934422E-001
2.03813671E-001
3.42408378E-002
-8.79758467E-003
-2.77032645E-003
3.43033236E-004
3.16129761E-004
-4.09728994E-004
2.09839369E-004
-1.34202167E-004
1.03183033E-003
3.67468223E-003
-1.01757673E-002
-3.41184637E-003
-7.47673519E-005
2.17370551E-003
1.30254438E-003
-9.50828539E-005
1.02984184E-003
1.90339770E-003
-5.63850476E-004
1.84385327E-003
-7.82247646E-003
9.62578087E-003
3.52267793E-003
1.47534900E+000
-4.47879033E-001
-2.76965538E-001
2.51795623E-001
4.79440831E-002
-3.18770390E-001
6.66839608E-001
-7.62921497E-002
2.14569404E-002
9.75565388E-003
-6.96448111E-006
4.86359332E-003
2.39732340E-004
-5.30869375E-002
1.00000000E+000
1.00000000E+000
1.00000000E+000
1.00000000E+000
1.00000000E+000
1.00000000E+000
1.77806185E-004
-5.70493421E-004
7.29436936E-005
-2.84287736E-003
-1.17375949E-001
-8.02199287E-002
-1.62399844E-002
1.49970014E+000
3.97111710E-001
-4.74091142E-002
3.85972122E-001
-6.37594513E-001
6.60429474E-001
-1.75858220E-001
-6.74341217E-002
-4.16245703E-001
-2.10834197E-001
-2.09625316E-002
-1.36792501E-001
4.74204367E-002
-2.15817958E-001
4.92460899E-002
-1.47768179E-002
-8.22987281E-003
-1.59926851E-004
3.29046857E-004
6.75855840E-004
-1.72472967E-004
1.63800555E-003
4.03490296E-004
-7.08593475E-004
2.37098883E-003
-1.05178620E-003
2.95357744E-004
-2.45373193E-003
1.96961256E-003
1.64594673E-004
3.36709749E-003
1.02817301E-002
1.37367445E-002
-7.18075554E-003
5.37706858E-003
1.84105041E-003
1.28999218E-003
-1.23435610E+000
1.04687084E+000
7.47481697E-001
2.32490260E-001
-2.35549590E-001
-3.86915716E-001
1.91096691E-001
-5.33927666E-001
-1.59142683E-001
-1.42914885E-001
4.77503698E-003
9.02801613E-002
-2.17162620E-002
1.01229334E-002
-1.24255148E-001
-3.87900098E-001
-2.28918624E-001
-1.14645639E+000
6.62752898E-001
-2.88802474E-001
-1.29273197E-003
-5.91721571E-004
2.09265730E-002
-2.71680526E+000
4.19138537E-003
4.92847856E-003
9.43065527E-004
-3.05274967E-003
3.00124824E-004
1.26584871E-003
-1.87521642E-003
-3.69956229E-003
1.34460284E-003
5.44788592E-001
5.22167379E-001
9.15420597E-002
-8.48952916E-002
-3.93774424E+000
-5.45109900E-001
-7.82233591E-003
5.79037275E-001
9.98419139E-002
-5.68913458E-001
3.80344360E-001
1.16452357E-001
1.79669855E-003
-1.71611955E-002
-2.58642947E-004
-1.05047074E-003
4.90522620E-003
-1.02421821E-003
-1.42851543E-004
3.35376593E-004
6.48230299E-003
-1.18311674E-002
-2.70040073E-003
9.55286629E-003
-3.37078287E-001
-5.64855300E-002
2.91379394E-001
-7.53537156E-001
-1.30992662E-001
-6.29961510E-002
4.49916034E-002
3.59188777E-002
9.00531360E-002
7.33681777E-003
-1.40952587E+000
3.38916799E-001
-5.33817056E+000
-5.83899616E-003
3.18312362E-003
1.02313089E+000
3.50192296E+000
-1.87274629E-001
-5.72157207E-004
-5.13150839E-003
1.98053317E-001
-7.57898688E-002
1.73428109E-004
7.89827265E-004
-5.06840507E-001
-6.42695675E-001
6.25217937E-002
9.37540724E-003
5.65422078E-004
1.48808627E-003
1.38645624E-002
-3.01009738E-003
-1.63130905E+000
-5.05839871E-003
4.86249646E-003
1.11981560E-003
-5.74844801E-002
-2.29369706E-002
3.22414384E-002
2.38756433E+000
-4.76263690E-001
6.64956395E-003
-1.16677340E-001
-1.65118319E+000
-2.04280958E-001
4.66873854E-001
6.11238208E-004
-1.29071842E-004
5.15491755E-002
7.71914164E-001
-1.77195862E-003
-3.71097967E-001
2.39738066E-002
1.65283478E-004
-9.47563894E-001
-3.50782260E-001
2.79941918E-002
-2.39756149E-002
-2.29823891E-002
-7.32070297E-006
1.49692884E-001
-6.44487234E-001
-1.66877636E-003
-1.38230911E-003
-4.56348479E-004
5.31028534E-005
9.31570118E-005
1.01034184E+000
1.50964114E+000
5.30459103E-001
-3.52965330E-002
-3.77379774E-001
-1.95144421E-003
-5.66939401E+000
3.11451883E-002
-4.90266217E-001
-6.37845897E-001
4.21210609E-001
1.38138281E+000
1.49218514E+000
1.13024153E+000
7.24034460E-002
2.63326336E-001
-1.32576018E+000
3.10247864E-001
-2.00268935E-004
-6.84840318E-004
1.34716070E-003
1.24820496E-004
-1.37911216E-002
-1.87028773E-001
-2.60191640E-001
-2.84664096E-002
1.74335684E-002
-4.11933091E-002
4.01606654E-002
2.98066311E-002
-1.10126553E-003
3.00333848E-003
3.02992478E-003
-8.55918718E-004
-1.21972744E-019
2.73463284E-004
-4.33954480E-004
-9.72803144E-005
5.57119902E-004
-5.93021667E-003
2.97633223E-003
1.83798410E-003
1.01643954E-020
-2.63137701E-003
2.19829024E-003
-3.95861719E-004
-1.19940368E-003
5.79969238E-005
1.56225497E-004
-1.33459841E-003
-6.00862449E-004
-1.90071896E-003
3.40715532E-004
-5.14168867E-004
6.99658419E-001
2.95695054E+000
-1.50781373E-002
7.51808371E-001
3.10939617E-001
1.22332554E+000
2.13367063E-001
-4.44940285E-001
3.26340994E-001
1.16184787E-001
-1.18925891E-001
2.09355739E-001
3.67512168E-001
1.38039804E-001
-1.22759219E-001
-5.92560308E-001
-9.50458613E-003
-1.09314789E-001
-2.95099430E-001
-8.15371326E-002
-2.93903546E-001
-3.62586717E-001
-1.77748940E+000
5.13382412E-002
-1.48853469E-001
-2.05921055E+000
2.19398866E-001
-4.02398999E-001
5.54901951E-001
2.18154634E-001
-1.53154277E-001
9.47625510E-001
-2.00959582E-001
-4.82824187E-003
-1.25004834E-001
-1.31355080E-003
-2.42160235E-001
-1.04981374E+000
-2.16774487E-001
-3.56116352E-001
6.88213776E-001
-2.70481080E-001
1.60005773E-002
-2.17060066E-001
5.20857616E-002
-8.14810781E-002
-1.39825465E-001
1.72494834E-002
-1.73068125E-002
-7.61404295E-002
-1.67414689E-001
7.85936945E-002
-1.88836323E-001
2.93463578E-001
-1.26351817E-001
2.93750344E-003
3.24628790E-001
7.56120375E-002
2.03189279E-004
8.95793988E-002
1.18668275E-003
7.24617144E-003
2.42213474E-002
1.88476953E-003
2.98964561E-003
-1.06456352E-002
-7.66089111E-003
-2.95875856E-003
-2.11234425E-003
-1.66512206E-003
-3.61314915E-003
4.44414639E-004
3.06829991E-004
-1.07064306E-004
4.92194461E-004
-2.72435260E-004
4.17218336E-004
-3.81170441E-004
-2.85991050E-006
-2.96066242E-004
4.26131473E-004
1.15860630E-003
6.08284616E-005
-1.88035363E-004
-2.02152959E-004
3.54897567E-003
3.82278503E-004
5.93529000E-005
2.74469968E-003
-4.09301071E-005
1.98053297E-005
-4.53238310E-004
-3.73428779E-005
-4.15023322E-003
-1.65556366E-003
5.56634354E-004
-5.32465232E-004
3.19878177E-002
5.22670249E-003
-3.96813155E-003
-2.04716413E-002
1.81660200E-002
9.69113864E-002
-2.22301416E-002
-9.02722735E-004
-1.37736648E-002
-9.35558959E-004
3.53947347E-005
1.49767669E-003
2.03923384E-003
-3.42925916E-005
-1.02179481E-002
-2.41445648E-003
5.46476754E-004
7.90257463E-004
-1.48053258E-005
7.61678151E-004
5.24660192E-004
8.58442946E-004
-2.40250905E-004
1.54905781E-004
1.46517334E-002
-2.26642348E-003
-1.15997900E-003
1.38683933E-002
-3.47741025E-003
1.02432503E-003
3.72566302E-003
5.55265996E-001
-5.03985581E-001
1.47121011E+000
7.09389266E-001
4.02041969E-001
-4.76028558E+000
1.48438022E+000
1.88569246E-001
-3.16166682E-001
2.61529210E-002
2.52622246E-001
-3.15510458E-001
-6.05957467E-002
5.28365879E-002
-1.26266282E+000
-7.90434889E-002
2.69342413E-001
1.51880454E+000
1.34876114E-001
2.33391887E-001
1.62675283E-001
2.01078203E-001
-6.34275845E-001
3.54925271E-001
-7.53839366E-002
-8.38145727E-001
2.40987004E+000
-7.16816775E-001
-7.31231314E-001
-4.96848948E-002
1.40597551E+000
-1.90290354E-002
-4.77582074E-002
-6.94818345E-003
7.54009585E-003
1.55385692E-002
-5.61850485E-003
5.86350193E-002
-8.30358350E-005
-6.69069913E-004
-4.77914306E-002
-6.83994364E-003
-6.21333874E-001
2.98213920E-001
-3.36283328E-002
-4.74875630E-001
-6.47853003E-001
1.04169725E-001
6.38756388E-001
1.00000000E+000
3.03306543E-001
-5.95156009E-001
-1.53499209E-002
-2.50192717E-004
-8.90075865E-004
-7.36429845E-005
-9.82558219E-020
-0.00000000E+000
0.00000000E+000
-7.47995752E-004
-5.06721925E-004
1.36904375E-003
1.29810266E-003
9.15718494E-004
3.10390148E-004
-6.09863722E-020
2.46147088E-004
1.11307890E-003
-2.52178569E+000
6.51797819E-001
1.00000000E+000
7.79803065E-001
4.10245413E-001
7.52271501E-001
1.00000000E+000
-2.18592495E-001
-2.05239873E-001
2.37008444E-002
-2.23482889E-001
3.87697171E-001
5.41333086E-001
-1.98462348E-001
-4.46775319E-002
4.77975881E-002
-1.80196245E-001
8.51840741E-001
-3.56030656E-001
-9.75706013E-001
-7.43410212E-001
1.12683049E+000
-1.51123515E-001
-2.78411524E-001
1.27872759E+000
-2.16370538E-001
-5.02641446E-001
1.04956640E+000
-2.97643587E-001
-3.50013992E-002
4.61315026E-001
2.45403360E-001
-1.80229775E+000
-3.53823743E-001
-4.34711472E-001
1.77576104E-001
-3.51673107E-001
-1.34072097E-001
3.28826960E-001
-5.22927062E-001
-2.80097587E-003
-3.66487700E-002
1.98769674E-002
-3.24578405E-002
1.57906889E-002
-1.91830337E-001
2.65905332E-002
1.08704123E-004
4.23093997E-004
3.27141140E-003
1.34341048E-005
1.60272490E-003
1.40294223E-003
1.18463728E-003
-6.22173025E-004
-8.28645595E-003
9.27728557E-004
2.62171109E-003
2.07220842E-003
-6.18178379E-003
3.01057312E-003
5.59378225E-003
1.26780990E-003
1.11014628E-003
6.85497950E-004
-1.89454900E-003
-5.24208350E-004
2.72932337E-003
-1.51734400E-002
2.16762647E-004
3.59590752E-003
-2.77557538E-002
2.41694958E-002
1.11152863E-002
2.33432310E-003
3.21636622E-004
1.14071926E-003
-6.01369237E-002
4.10081855E-002
3.05626548E-003
-2.88471637E-003
-3.31951183E-003
-2.39360385E-003
9.01829097E-004
1.68534791E-004
6.65923448E-004
1.54331051E-002
1.05238419E-003
1.80038327E-003
8.98238287E-005
1.33322976E-004
9.06850586E-003
1.20746300E-003
3.12705520E-004
-1.32666253E-003
-5.97558046E-004
-6.39318753E-005
1.73492092E-003
5.78701363E-004
-1.70625119E-004
-2.35209480E-003
-1.51319592E-003
-6.43343422E-004
7.46047908E-004
-1.78449267E+000
-8.88303127E+000
1.15519400E+000
7.77711674E-001
1.00000000E+000
6.13859441E-001
-1.14700972E-001
2.38536535E-003
-3.65741625E-001
-1.41411542E-001
1.51953154E-001
-2.59113879E-001
5.83583539E-001
-1.55143933E-001
-1.15150414E-002
-7.12728723E-001
-2.16748757E-001
1.40928509E+000
-2.20333281E-001
-2.29240227E-001
-3.86332909E-001
7.17226285E-002
-3.98746202E-001
-1.54013532E+000
5.29751377E-002
-1.56604318E-001
3.73701521E-002
-4.38094196E-002
4.48250099E-002
2.16291804E-003
7.15244472E-003
-6.94039401E-002
1.49270359E-002
-1.01494296E-002
7.25632105E-003
1.02353343E-003
-5.56910883E-003
-1.92015181E-003
1.00000000E+000
8.44805840E-001
-1.94204902E-002
2.16609895E-001
-7.17947259E-001
3.43450634E-001
1.00000000E+000
-6.61766582E-001
4.90205338E-001
2.18037487E-003
2.43795148E-003
-2.37110582E-002
-1.27910948E+000
-2.84998741E-001
-1.33099139E+000
2.84037414E-004
3.35217835E-004
-1.83425139E-002
3.98477562E-003
-5.03240725E-003
-1.57589686E-003
-2.16493658E-004
6.79478400E-004
3.99403649E-004
-1.05293302E-004
7.60053124E-004
3.74069389E+000
-2.22823358E-001
-3.91963246E-001
2.13459854E-001
-5.84821433E-001
1.06855194E-001
-3.25537355E+000
-4.23033208E-002
-1.82682564E-001
4.85238626E-002
-1.44888019E-001
3.56558542E-002
-1.90151581E-001
-2.90492746E-001
-4.44469985E-002
2.87300453E-001
-1.99803012E-005
4.84070353E-004
-4.18000960E-004
1.20219891E-001
2.29767198E-002
4.46133694E-003
4.61916845E-004
-4.59295702E-005
2.71331819E-004
3.92408324E-004
-4.22486298E-004
-1.10131457E-002
1.27963851E-003
1.30337217E-003
-1.08037636E-002
2.86563754E-002
-6.39471852E-004
-3.77583152E-002
4.76731023E-003
4.87078603E-002
-9.89689181E-002
3.87564560E-001
-4.17989035E-001
-9.93347497E-001
1.27792209E+000
2.00943339E-003
-5.77537372E-001
-3.60853009E-001
-4.15737395E-001
-3.23047466E-001
4.98421794E-005
1.00000000E+000
-3.37325538E-001
-6.72624510E-001
-2.15396124E-001
2.47965058E-002
-1.69184403E-001
6.28390197E-001
2.13537628E-001
-5.10638850E-001
-1.22252040E-001
-2.28889268E+000
1.11408213E-001
1.45632289E-003
-1.46976488E+000
6.50521303E-019
2.34297973E-005
-2.35898203E-004
-0.00000000E+000
4.84826277E-001
