# vtk DataFile Version 1.0
ECM-CELL DIFFUSION-MECHANICS
ASCII

DATASET UNSTRUCTURED_GRID
POINTS      777 float
1.50000000E+01 3.00000000E+01 0.00000000E+00
-5.00000000E+00 3.00000000E+01 0.00000000E+00
5.00000000E+00 2.00000000E+01 0.00000000E+00
5.00000000E+00 -1.00000000E+01 0.00000000E+00
-2.50000000E+01 -1.00000000E+01 0.00000000E+00
-2.69134178E+01 -9.61939812E+00 0.00000000E+00
-2.85355339E+01 -8.53553391E+00 0.00000000E+00
-2.96193981E+01 -6.91341734E+00 0.00000000E+00
-3.00000000E+01 -5.00000000E+00 0.00000000E+00
-2.96193981E+01 -3.08658290E+00 0.00000000E+00
-2.85355339E+01 -1.46446609E+00 0.00000000E+00
-2.69134178E+01 -3.80602330E-01 0.00000000E+00
-2.50000000E+01 0.00000000E+00 0.00000000E+00
-5.00000000E+00 0.00000000E+00 0.00000000E+00
1.30000000E+01 3.00000000E+01 0.00000000E+00
1.10000000E+01 3.00000000E+01 0.00000000E+00
9.00000000E+00 3.00000000E+01 0.00000000E+00
7.00000000E+00 3.00000000E+01 0.00000000E+00
5.00000000E+00 3.00000000E+01 0.00000000E+00
3.00000000E+00 3.00000000E+01 0.00000000E+00
1.00000000E+00 3.00000000E+01 0.00000000E+00
-1.00000000E+00 3.00000000E+01 0.00000000E+00
-3.00000000E+00 3.00000000E+01 0.00000000E+00
6.42857122E+00 2.14285717E+01 0.00000000E+00
7.85714293E+00 2.28571434E+01 0.00000000E+00
9.28571415E+00 2.42857151E+01 0.00000000E+00
1.07142859E+01 2.57142849E+01 0.00000000E+00
1.21428576E+01 2.71428566E+01 0.00000000E+00
1.35714283E+01 2.85714283E+01 0.00000000E+00
5.00000000E+00 1.80000000E+01 0.00000000E+00
5.00000000E+00 1.60000000E+01 0.00000000E+00
5.00000000E+00 1.40000000E+01 0.00000000E+00
5.00000000E+00 1.20000000E+01 0.00000000E+00
5.00000000E+00 1.00000000E+01 0.00000000E+00
5.00000000E+00 8.00000000E+00 0.00000000E+00
5.00000000E+00 6.00000000E+00 0.00000000E+00
5.00000000E+00 4.00000000E+00 0.00000000E+00
5.00000000E+00 2.00000000E+00 0.00000000E+00
5.00000000E+00 0.00000000E+00 0.00000000E+00
5.00000000E+00 -2.00000000E+00 0.00000000E+00
5.00000000E+00 -4.00000000E+00 0.00000000E+00
5.00000000E+00 -6.00000000E+00 0.00000000E+00
5.00000000E+00 -8.00000000E+00 0.00000000E+00
3.00000000E+00 -1.00000000E+01 0.00000000E+00
1.00000000E+00 -1.00000000E+01 0.00000000E+00
-1.00000000E+00 -1.00000000E+01 0.00000000E+00
-3.00000000E+00 -1.00000000E+01 0.00000000E+00
-5.00000000E+00 -1.00000000E+01 0.00000000E+00
-7.00000000E+00 -1.00000000E+01 0.00000000E+00
-9.00000000E+00 -1.00000000E+01 0.00000000E+00
-1.10000000E+01 -1.00000000E+01 0.00000000E+00
-1.30000000E+01 -1.00000000E+01 0.00000000E+00
-1.50000000E+01 -1.00000000E+01 0.00000000E+00
-1.70000000E+01 -1.00000000E+01 0.00000000E+00
-1.90000000E+01 -1.00000000E+01 0.00000000E+00
-2.10000000E+01 -1.00000000E+01 0.00000000E+00
-2.30000000E+01 -1.00000000E+01 0.00000000E+00
-7.00000000E+00 0.00000000E+00 0.00000000E+00
-9.00000000E+00 0.00000000E+00 0.00000000E+00
-1.10000000E+01 0.00000000E+00 0.00000000E+00
-1.30000000E+01 0.00000000E+00 0.00000000E+00
-1.50000000E+01 0.00000000E+00 0.00000000E+00
-1.70000000E+01 0.00000000E+00 0.00000000E+00
-1.90000000E+01 0.00000000E+00 0.00000000E+00
-2.10000000E+01 0.00000000E+00 0.00000000E+00
-2.30000000E+01 0.00000000E+00 0.00000000E+00
-5.00000000E+00 2.80000000E+01 0.00000000E+00
-5.00000000E+00 2.60000000E+01 0.00000000E+00
-5.00000000E+00 2.40000000E+01 0.00000000E+00
-5.00000000E+00 2.20000000E+01 0.00000000E+00
-5.00000000E+00 2.00000000E+01 0.00000000E+00
-5.00000000E+00 1.80000000E+01 0.00000000E+00
-5.00000000E+00 1.60000000E+01 0.00000000E+00
-5.00000000E+00 1.40000000E+01 0.00000000E+00
-5.00000000E+00 1.20000000E+01 0.00000000E+00
-5.00000000E+00 1.00000000E+01 0.00000000E+00
-5.00000000E+00 8.00000000E+00 0.00000000E+00
-5.00000000E+00 6.00000000E+00 0.00000000E+00
-5.00000000E+00 4.00000000E+00 0.00000000E+00
-5.00000000E+00 2.00000000E+00 0.00000000E+00
-2.59871254E+01 -7.91282892E+00 0.00000000E+00
-2.72089272E+01 -7.22517633E+00 0.00000000E+00
-2.66474552E+01 -5.39335680E+00 0.00000000E+00
-2.69874706E+01 -4.19447088E+00 0.00000000E+00
3.56631780E+00 1.81858082E+01 0.00000000E+00
3.45538449E+00 1.60969982E+01 0.00000000E+00
-8.99606419E+00 -8.32854271E+00 0.00000000E+00
1.15325785E+01 2.76091194E+01 0.00000000E+00
8.69346333E+00 2.86210556E+01 0.00000000E+00
6.79735470E+00 2.83068199E+01 0.00000000E+00
4.81789303E+00 2.81218548E+01 0.00000000E+00
2.81581450E+00 2.80152245E+01 0.00000000E+00
8.33386540E-01 2.80571632E+01 0.00000000E+00
3.39765048E+00 1.40790730E+01 0.00000000E+00
3.36072111E+00 1.20805902E+01 0.00000000E+00
3.33418083E+00 1.00849323E+01 0.00000000E+00
3.31360078E+00 8.08838463E+00 0.00000000E+00
3.29503798E+00 6.08961487E+00 0.00000000E+00
3.27511024E+00 4.08798981E+00 0.00000000E+00
3.24555063E+00 2.08999419E+00 0.00000000E+00
-3.39916706E+00 1.91835046E-01 0.00000000E+00
3.19515896E+00 7.99414515E-02 0.00000000E+00
3.08858156E+00 -1.95740485E+00 0.00000000E+00
2.94115114E+00 -4.00789595E+00 0.00000000E+00
2.95735145E+00 -6.02382755E+00 0.00000000E+00
2.99156761E+00 -8.02272415E+00 0.00000000E+00
-3.03548622E+00 -8.25239944E+00 0.00000000E+00
-5.03107357E+00 -8.30240726E+00 0.00000000E+00
-7.01400518E+00 -8.32370090E+00 0.00000000E+00
-1.09846535E+01 -8.33255196E+00 0.00000000E+00
-1.29763451E+01 -8.34380913E+00 0.00000000E+00
-1.49628611E+01 -8.35872173E+00 0.00000000E+00
-1.69386921E+01 -8.37445927E+00 0.00000000E+00
-1.88995705E+01 -8.38477707E+00 0.00000000E+00
-2.08368797E+01 -8.38374519E+00 0.00000000E+00
-2.27050743E+01 -8.35194588E+00 0.00000000E+00
-2.44529305E+01 -1.81291687E+00 0.00000000E+00
-2.44611835E+01 -8.25364876E+00 0.00000000E+00
-7.03477573E+00 -1.61946285E+00 0.00000000E+00
-9.00131798E+00 -1.63337088E+00 0.00000000E+00
-1.09891205E+01 -1.64573705E+00 0.00000000E+00
-1.29806490E+01 -1.65276051E+00 0.00000000E+00
-1.49665661E+01 -1.65118086E+00 0.00000000E+00
-1.69362106E+01 -1.64144766E+00 0.00000000E+00
-1.88823471E+01 -1.62573457E+00 0.00000000E+00
-2.07968693E+01 -1.61687005E+00 0.00000000E+00
-2.26661606E+01 -1.65481305E+00 0.00000000E+00
-3.14961743E+00 2.61050987E+01 0.00000000E+00
-3.21332860E+00 2.41569138E+01 0.00000000E+00
-3.23101664E+00 2.21709061E+01 0.00000000E+00
-3.19988894E+00 2.01672287E+01 0.00000000E+00
-3.19480872E+00 1.81522160E+01 0.00000000E+00
-3.22400498E+00 1.61377392E+01 0.00000000E+00
-3.26183391E+00 1.41241846E+01 0.00000000E+00
-3.29545403E+00 1.21142969E+01 0.00000000E+00
-3.32145929E+00 1.01066618E+01 0.00000000E+00
-3.34261227E+00 8.10189915E+00 0.00000000E+00
-3.36075759E+00 6.10010099E+00 0.00000000E+00
-3.37989211E+00 4.10786200E+00 0.00000000E+00
-3.39658475E+00 2.12506461E+00 0.00000000E+00
9.87431145E+00 2.69113979E+01 0.00000000E+00
5.55943680E+00 2.24666195E+01 0.00000000E+00
8.27692127E+00 2.52841549E+01 0.00000000E+00
1.21497765E+01 2.87516937E+01 0.00000000E+00
7.00510788E+00 2.38013420E+01 0.00000000E+00
-2.55711937E+01 -3.71893096E+00 0.00000000E+00
-2.53829994E+01 -6.46415377E+00 0.00000000E+00
-3.41579247E+00 -1.53762901E+00 0.00000000E+00
-3.08106852E+00 2.80612659E+01 0.00000000E+00
-8.99859238E+00 -6.65214443E+00 0.00000000E+00
-1.29351008E+00 2.61693573E+01 0.00000000E+00
6.86967373E+00 2.63770676E+01 0.00000000E+00
1.54031169E+00 2.17246723E+00 0.00000000E+00
1.31703186E+00 -1.76688719E+00 0.00000000E+00
-5.08228636E+00 -6.62115431E+00 0.00000000E+00
-9.00249004E+00 -3.29739213E+00 0.00000000E+00
-1.09824476E+01 -3.30994868E+00 0.00000000E+00
-1.29688711E+01 -3.32068324E+00 0.00000000E+00
-1.49453335E+01 -3.32586026E+00 0.00000000E+00
-1.68954639E+01 -3.31989431E+00 0.00000000E+00
-1.88051834E+01 -3.30147409E+00 0.00000000E+00
-2.24104786E+01 -3.31642485E+00 0.00000000E+00
-1.47017288E+00 2.42874813E+01 0.00000000E+00
4.75124407E+00 2.61952667E+01 0.00000000E+00
-1.41161871E+00 2.03558025E+01 0.00000000E+00
-1.41152394E+00 1.82831421E+01 0.00000000E+00
-1.47984684E+00 1.62193718E+01 0.00000000E+00
-1.55269098E+00 1.41849861E+01 0.00000000E+00
-1.61183786E+00 1.21700039E+01 0.00000000E+00
-1.65644002E+00 1.01618252E+01 0.00000000E+00
-1.69045985E+00 8.15654087E+00 0.00000000E+00
-1.74818420E+00 4.17103720E+00 0.00000000E+00
2.63595510E+00 2.58476467E+01 0.00000000E+00
5.85341334E-01 2.61480026E+01 0.00000000E+00
1.48443735E+00 1.99812949E-01 0.00000000E+00
7.22676218E-01 -3.93087220E+00 0.00000000E+00
-1.02083135E+00 -8.16479301E+00 0.00000000E+00
-7.03490305E+00 -6.64700460E+00 0.00000000E+00
-1.09789371E+01 -6.66079235E+00 0.00000000E+00
-1.29644680E+01 -6.67540455E+00 0.00000000E+00
-1.49419928E+01 -6.69405699E+00 0.00000000E+00
-1.68996048E+01 -6.70987225E+00 0.00000000E+00
-1.88245621E+01 -6.71467447E+00 0.00000000E+00
-2.06824856E+01 -6.69600010E+00 0.00000000E+00
-2.06575108E+01 -3.28913999E+00 0.00000000E+00
-2.24377365E+01 -6.66452074E+00 0.00000000E+00
-1.53943622E+00 2.23406563E+01 0.00000000E+00
1.86250246E+00 1.61861019E+01 0.00000000E+00
1.77246237E+00 1.41486263E+01 0.00000000E+00
1.71115601E+00 1.21418839E+01 0.00000000E+00
1.66675675E+00 1.01430874E+01 0.00000000E+00
1.63350880E+00 8.14535809E+00 0.00000000E+00
1.60673702E+00 6.14654064E+00 0.00000000E+00
-1.71792471E+00 6.15320969E+00 0.00000000E+00
1.58160424E+00 4.14921808E+00 0.00000000E+00
-1.77281892E+00 2.20080662E+00 0.00000000E+00
2.01078510E+00 1.82713623E+01 0.00000000E+00
-2.40447159E+01 -6.61500549E+00 0.00000000E+00
-2.40787086E+01 -3.44673610E+00 0.00000000E+00
3.91073895E+00 2.06671638E+01 0.00000000E+00
4.69771385E+00 2.40344315E+01 0.00000000E+00
2.23431134E+00 2.02954235E+01 0.00000000E+00
-2.63834591E+01 -6.32643604E+00 0.00000000E+00
2.15098262E-01 1.62336769E+01 0.00000000E+00
-5.16005945E+00 -3.28352356E+00 0.00000000E+00
9.15533721E-01 -6.09541035E+00 0.00000000E+00
-3.12387347E+00 -6.53723431E+00 0.00000000E+00
-5.13622618E+00 -4.95174408E+00 0.00000000E+00
-9.00362396E+00 -4.97516680E+00 0.00000000E+00
-1.09809561E+01 -4.98574305E+00 0.00000000E+00
-1.29646101E+01 -4.99896383E+00 0.00000000E+00
-1.49383945E+01 -5.01089621E+00 0.00000000E+00
-1.75341535E+00 -3.10992193E+00 0.00000000E+00
-7.05302477E+00 -4.96985292E+00 0.00000000E+00
[...]
POINT_DATA      777
SCALARS Ux float
LOOKUP_TABLE default
1.00000000E+00
9.29880865E-01
1.00000000E+00
4.39948456E-01
6.93889390E-18
-2.94902991E-17
8.41340886E-17
2.53269627E-16
-3.07913417E-16
-4.42354486E-16
6.33174069E-16
-3.12250226E-17
-2.52835947E-16
3.45822413E-01
9.98099248E-01
9.96449365E-01
9.78126347E-01
1.00976925E+00
8.41042824E-01
1.04567475E+00
6.08685106E-01
1.08583987E+00
8.68045181E-01
1.00000000E+00
1.00000000E+00
1.00000000E+00
1.00000000E+00
1.00000000E+00
1.00000000E+00
8.14094009E-01
8.25154830E-01
7.88342114E-01
7.61524449E-01
7.37778706E-01
6.91158646E-01
6.71019157E-01
6.40653779E-01
5.63129212E-01
1.21793575E+00
3.07494831E-01
5.62254284E-01
4.58631690E-01
4.99698756E-01
6.39678454E-01
4.37629611E-01
6.58429495E-01
3.89546372E-01
3.78515189E-01
3.68404209E-01
3.28602756E-01
2.80990400E-01
2.42249618E-01
2.05926627E-01
1.68939085E-01
1.27709131E-01
1.03953469E-01
5.50352776E-02
-2.69682464E-03
3.90360787E-01
2.48572076E-01
2.53930115E-01
2.11298300E-01
1.35792394E-01
3.04668096E-01
1.20488746E-01
7.84356707E-02
9.13339912E-01
9.15221648E-01
8.89607524E-01
9.19962194E-01
7.31240409E-01
8.60129581E-01
8.19754239E-01
7.75981062E-01
7.54467089E-01
7.28492306E-01
6.79982623E-01
5.87237915E-01
6.31043994E-01
2.10714040E+00
2.01411521E-02
1.30020899E-02
2.18628621E-02
2.90328997E-02
8.90249918E-01
8.20591146E-01
3.48136906E-01
9.98528032E-01
9.90231505E-01
9.81723055E-01
9.62519335E-01
9.36643798E-01
9.42391426E-01
7.95820097E-01
7.41271340E-01
6.76429145E-01
7.07291403E-01
6.39353356E-01
5.70076999E-01
7.50334701E-01
-7.01693397E-02
-1.62120133E-01
7.74195157E-01
4.20579286E-01
5.79774459E-01
4.37162188E-01
4.77291396E-01
4.65755064E-01
3.70592417E-01
2.64576743E-01
2.43266167E-01
2.13617001E-01
1.84304541E-01
1.69668992E-01
8.39774787E-02
7.36409672E-02
8.00459971E-02
3.04216732E-02
4.12216346E-01
2.56926741E-01
2.90427405E-01
2.43186702E-01
2.27164386E-01
3.59520351E-01
-4.33014900E-01
1.17048573E-01
9.02595158E-02
8.90819147E-01
9.40522567E-01
7.59579827E-01
1.36710929E+00
7.68774728E-01
7.71441180E-01
7.96021634E-01
7.31953801E-01
6.73523864E-01
6.88074541E-01
8.70137847E-01
5.65348251E-01
3.39793924E-01
9.91968208E-01
9.75286359E-01
9.96975566E-01
9.97050419E-01
9.86924150E-01
4.04169332E-02
2.23932292E-02
5.43793413E-01
9.27123099E-01
3.45612761E-01
9.57250495E-01
9.43045475E-01
5.81040409E-01
4.96354367E-01
1.38133242E-01
3.54625130E-01
2.65356965E-01
2.59949162E-01
1.91675126E-01
-4.75803819E-01
2.32857447E+00
8.67282571E-02
9.00627222E-01
9.64956402E-01
8.61629816E-01
8.45614708E-01
9.49962028E-01
7.39516598E-01
8.28507981E-01
8.91871940E-01
6.80027516E-01
8.51827277E-01
1.01490254E+00
8.99354087E-01
7.42928849E-01
5.09597773E-01
3.94621605E-01
3.70298801E-01
3.27392573E-01
2.43281078E-01
1.81060815E-01
1.42879435E-01
1.41927473E-02
1.85044135E-01
1.03980898E-01
6.36250212E-02
8.94669105E-01
8.39763029E-01
7.78171829E-01
8.23214847E-01
8.97650073E-01
6.78177765E-01
6.38883267E-01
-2.21185172E-01
6.40458690E-01
5.77335516E-01
8.80672412E-01
5.10485575E-02
6.46946106E-02
9.67309097E-01
9.68609955E-01
9.12539337E-01
2.18805595E-02
6.14346800E-01
3.98068943E-01
4.63823120E-01
3.76996276E-01
4.58696626E-01
3.40628719E-01
3.13402098E-01
2.35152108E-01
2.17298643E-01
4.62654601E-01
3.85936204E-01
3.53545060E-01
5.35740784E-01
4.97629778E-01
5.76761779E-01
5.37820029E-01
7.02076175E-01
7.39765330E-01
8.39752712E-02
9.05238026E-01
4.98784585E-01
9.16696820E-01
8.97585560E-01
8.85454539E-01
9.22197529E-01
9.59759918E-01
1.29931783E-01
8.31547650E-02
9.53984828E-01
7.25349591E-01
4.70030083E-01
4.13262888E-01
4.57793929E-01
5.19806756E-01
4.86024378E-01
9.90015268E-01
9.92725521E-01
9.05605236E-01
1.03747192E-02
6.13891202E-03
8.06934162E-03
1.46738686E-02
4.69060544E-01
9.97847659E-01
1.10342491E-02
3.80641334E-01
4.86825099E-01
4.90916899E-01
9.16503406E-01
4.78244770E-02
5.90689642E-02
9.72884995E-01
9.03541512E-01
9.37380341E-01
9.17242826E-01
-4.25680105E-01
1.00000000E+00
8.65779729E-01
1.00000000E+00
6.42969896E-01
3.81643695E-16
-2.77555076E-17
1.56125671E-17
9.36751049E-16
2.55004270E-16
4.60568190E-16
1.11368993E-15
5.89681402E-17
1.01465362E-16
7.75524946E-01
1.00154558E+00
9.83587492E-01
1.02264464E+00
8.55563162E-01
1.46157507E+00
5.94270876E-01
2.22862404E+00
3.19699950E-01
1.11802830E+00
1.00000000E+00
1.00000000E+00
1.00000000E+00
1.00000000E+00
1.00000000E+00
1.00000000E+00
8.32841272E-01
8.16487862E-01
7.94881899E-01
7.39853702E-01
6.75638496E-01
7.09300265E-01
6.25662821E-01
5.81267192E-01
7.62633950E-01
-2.12745329E+00
1.29975380E+00
2.77681993E-01
6.21608010E-01
4.32962160E-01
-1.05563742E-01
5.85073410E-01
-2.55696415E-01
4.33459778E-01
4.62808111E-01
3.70447136E-01
3.26354261E-01
2.87952276E-01
2.36895488E-01
2.14338329E-01
1.82887253E-01
1.67479559E-01
7.90999200E-02
6.22096553E-02
1.41654704E+00
-1.56523759E-02
3.62320801E-01
2.20339361E-01
2.31478730E-01
3.56050882E-01
-4.32711293E-01
1.20338247E-01
1.78361849E-01
9.23001144E-01
8.88429124E-01
9.37797267E-01
7.52537230E-01
1.36490122E+00
7.59088986E-01
7.73958801E-01
7.92677048E-01
7.29300009E-01
6.70181229E-01
6.86304040E-01
8.71596248E-01
5.66838583E-01
-5.04480297E+00
2.01411521E-02
1.30020899E-02
2.18628621E-02
2.90329000E-02
8.88672932E-01
8.34612003E-01
3.56537103E-01
9.98775467E-01
9.90367885E-01
9.36659241E-01
9.62655715E-01
1.01300835E+00
8.98945535E-01
7.76323379E-01
8.20832012E-01
9.08692097E-01
6.39491501E-01
8.08650815E-01
7.91703978E-01
5.77469815E-03
2.91252051E+00
3.31350518E+00
-5.14867691E-01
8.35761910E-01
1.44862992E-01
6.39784409E-01
3.12952128E-01
1.51290761E-01
3.62935643E-01
2.38592335E-01
2.63248675E-01
1.82223933E-01
1.32249314E-01
2.12437210E-02
1.76732190E-01
4.68658246E-02
8.00459961E-02
3.04216733E-02
3.72759338E-01
3.63517106E-01
2.43363746E-01
2.67411049E-01
1.78949855E-01
-4.69756902E-01
2.32086813E+00
1.17088899E-01
6.34843773E-02
9.91582340E-01
7.60469103E-01
1.38447374E+00
-9.97759901E-01
1.14586734E+00
9.42351018E-01
7.33711653E-01
8.25878548E-01
8.91143786E-01
6.64482687E-01
-1.91101897E-01
8.04966103E-01
1.42609078E+00
9.91044767E-01
9.78732688E-01
9.97223001E-01
9.96126978E-01
9.86000709E-01
4.04169331E-02
2.23932292E-02
8.54123155E-02
8.88185251E-01
3.19244073E-01
7.48006922E-01
1.12316435E+00
5.81417489E-01
6.42630545E-01
1.38111021E+00
3.34276045E-01
3.39863086E-01
1.96642471E-01
3.64352832E-01
2.62104670E+00
-7.94957825E+00
9.39026338E-02
9.50053316E-01
9.61248530E-01
9.03150461E-01
9.03237593E-01
3.12022730E-01
9.72415534E-01
4.76651471E-01
8.46467535E-02
7.49624429E-01
-2.99401334E-01
7.41844597E-01
1.01694152E+00
-1.35006182E-01
4.51705889E-01
6.80442637E-01
3.80283899E-01
4.24364160E-01
1.68706291E-01
2.98221083E-01
3.37152253E-01
5.68123383E-01
-1.61121155E-01
1.03970093E-01
1.63551213E-01
8.85893833E-01
7.86506446E-01
8.54405503E-01
5.13336668E-01
7.91768269E-02
7.50788586E-01
6.80400097E-01
3.80826840E+00
5.57794509E-01
5.77530138E-01
8.86807004E-01
5.10485578E-02
6.46946109E-02
9.66385656E-01
9.69541936E-01
8.91469150E-01
2.18805595E-02
1.76487357E+00
4.61602282E-01
5.66060608E-01
7.31388313E-01
2.20760965E-01
4.05067639E-01
7.82783318E-02
3.11173339E-01
1.70890045E-01
4.24730533E-01
3.57773642E-01
-4.76216090E-01
4.77037995E-01
7.38098968E-01
5.75260115E-01
8.46679202E-01
5.45818653E-01
4.73684220E-01
3.12024896E+00
8.83259738E-01
1.72359974E+00
9.09972239E-01
3.58051478E-01
9.65128473E-01
6.44276785E-01
9.64080975E-01
1.29972123E-01
5.63796227E-02
9.47307733E-01
-1.51904499E-01
6.13764956E-01
5.33885409E-01
5.98502465E-01
6.98587066E-02
4.35562704E-01
9.41982232E-01
9.96171850E-01
1.00622672E+00
1.03747192E-02
6.13891202E-03
8.06934163E-03
1.46738689E-02
2.62597446E-01
9.52783846E-01
1.10342490E-02
3.89013484E-01
3.86468117E-01
5.76425539E-01
9.97850978E-01
4.78244772E-02
5.90689640E-02
6.74810994E-01
9.88278161E-01
1.01077567E+00
8.97917525E-01
2.32833258E+00
1.00000000E+00
1.10500843E+00
1.00000000E+00
-1.14716434E-01
2.50523322E-16
-5.20859877E-17
0.00000000E+00
-0.00000000E+00
-0.00000000E+00
2.87895560E-16
-0.00000000E+00
-9.33177683E-17
0.00000000E+00
-8.28146741E-01
9.88683703E-01
1.03158865E+00
8.56500113E-01
1.43106813E+00
-8.54282789E-01
2.27893307E+00
-3.81707036E+00
3.17897305E+00
1.85078600E-01
1.00000000E+00
1.00000000E+00
1.00000000E+00
1.00000000E+00
1.00000000E+00
1.00000000E+00
7.62875535E-01
8.48833429E-01
7.70475090E-01
8.20730030E-01
9.07548919E-01
6.41594822E-01
7.94934969E-01
8.02900953E-01
1.80721302E-02
1.03577086E+01
-2.40340709E+00
1.33972024E+00
1.33721018E-02
6.82026525E-01
2.67571800E+00
3.48056582E-02
3.15586793E+00
2.69572714E-01
1.48222641E-01
3.62822829E-01
3.34745759E-01
2.61970199E-01
2.56877372E-01
1.82945429E-01
1.30831982E-01
1.90542997E-02
1.71854628E-01
3.54345134E-02
-3.88014316E+00
1.49960938E+00
-6.21952184E-02
3.45701763E-01
1.56164339E-01
-4.65964985E-01
2.31922605E+00
1.20899917E-01
-1.94567726E-01
8.86944934E-01
9.88420184E-01
7.57950696E-01
1.37737570E+00
-9.99953120E-01
1.13617762E+00
9.44869705E-01
7.30366781E-01
8.23224832E-01
8.87801130E-01
6.62712191E-01
-1.89643498E-01
8.06456436E-01
2.16466131E+01
2.01411522E-02
1.30020898E-02
2.18628624E-02
2.90328989E-02
8.94558322E-01
7.82285453E-01
3.25187140E-01
9.97852026E-01
9.89858906E-01
1.10483968E+00
9.62146737E-01
7.28011968E-01
1.06108781E+00
8.49086118E-01
5.23907540E-01
4.18749594E-02
8.92524182E-01
1.76824097E-01
-3.54191682E-02
2.78451046E+00
-8.21902955E+00
-9.65770507E+00
4.29598035E+00
-7.13720738E-01
1.76797468E+00
-1.16412014E-01
9.26274625E-01
1.32488752E+00
3.91511112E-01
3.35567465E-01
1.88672938E-01
2.99384456E-01
3.26522064E-01
5.75174375E-01
-1.69433105E-01
1.46792017E-01
8.00460001E-02
3.04216732E-02
5.20014895E-01
-3.42835529E-02
4.19007712E-01
1.77004553E-01
3.58888932E-01
2.62514794E+00
-7.95676325E+00
1.16938400E-01
1.63410555E-01
6.15528984E-01
1.43243778E+00
-9.47662081E-01
7.82805208E+00
-2.61461451E-01
3.04506820E-01
9.66255667E-01
4.75346623E-01
7.89751821E-02
7.52528685E-01
3.76949875E+00
-8.92998967E-02
-2.62802429E+00
9.94491096E-01
9.65870815E-01
9.96299560E-01
9.99573306E-01
9.89447037E-01
4.04169336E-02
2.23932292E-02
1.79611386E+00
1.03350328E+00
4.17653356E-01
1.52891457E+00
4.50951562E-01
5.80010209E-01
9.67204188E-02
-3.25774298E+00
4.10219863E-01
6.18024558E-02
4.32906261E-01
-2.80089141E-01
-8.93655678E+00
3.04090099E+01
6.71274953E-02
7.65592620E-01
9.75086496E-01
7.48193305E-01
6.88186060E-01
2.69284461E+00
1.03224872E-01
1.78979784E+00
3.09725216E+00
4.89885215E-01
3.99704233E+00
1.76091073E+00
5.78099235E-01
3.14149196E+00
6.67761341E-01
-3.86255979E-01
3.43019006E-01
6.24612709E-02
4.47023187E-01
-1.39026992E-01
-3.87883775E-01
-1.49917389E+00
1.13078530E+00
1.04010419E-01
-2.09378411E-01
9.18643595E-01
9.85262721E-01
5.69897557E-01
1.66981778E+00
3.13376057E+00
4.79801312E-01
5.25457178E-01
-1.12298571E+01
8.66301435E-01
5.76803798E-01
8.63912396E-01
5.10485568E-02
6.46946098E-02
9.69831984E-01
9.66063734E-01
9.70104159E-01
2.18805595E-02
-2.52895079E+00
2.24492636E-01
1.84505106E-01
-5.91220774E-01
1.10874894E+00
1.64578318E-01
9.55772172E-01
2.74582438E-02
3.44089290E-01
5.66265083E-01
4.62877753E-01
2.62049468E+00
6.96119786E-01
-1.59344268E-01
5.80864402E-01
-3.05998924E-01
1.12897966E+00
1.46671244E+00
-8.21127870E+00
9.65283824E-01
-2.84747265E+00
9.35068719E-01
2.37162008E+00
6.67781302E-01
1.68149112E+00
9.47954568E-01
1.29821572E-01
1.56305814E-01
9.72226990E-01
3.12205234E+00
7.73391045E-02
8.37160298E-02
7.33710590E-02
1.74908769E+00
6.23888237E-01
1.12124396E+00
9.83309977E-01
6.30702238E-01
1.03747192E-02
6.13891202E-03
8.06934159E-03
1.46738678E-02
1.03312822E+00
1.12096429E+00
1.10342493E-02
3.57768194E-01
7.61005473E-01
2.57302951E-01
6.94257706E-01
4.78244762E-02
5.90689646E-02
1.78723831E+00
6.72036684E-01
7.36860579E-01
9.70040528E-01
-7.94978269E+00
